ITEM: TIMESTEP
0
ITEM: NUMBER OF ATOMS
6985
ITEM: BOX BOUNDS xy xz yz pp pp ss
0 82.39051395999999 47.551096628
0 111.955116942 0
-99.39242438713319 103.7616293545642 0
ITEM: ATOMS id type x y z c_csym c_cna 
3715 1 1.28332 0.507659 -14.7902 0.000142174 1 
4323 1 10.221 0.815545 -13.3982 0.00020891 1 
4419 1 8.57784 2.53884 -14.9926 8.8031e-05 1 
4421 1 6.46481 2.26899 -13.0799 0.000336356 1 
4422 1 8.10698 0.548564 -11.4761 0.000760444 1 
4423 1 6.00295 0.281375 -9.55819 0.00193595 1 
4520 1 4.81626 3.99085 -14.6787 0.000161124 1 
4522 1 3.87669 1.38705 -13.9369 0.000244394 1 
4523 1 2.70023 3.71885 -12.7768 0.000460238 1 
4524 1 4.35502 1.99793 -11.1754 0.000953588 1 
4525 1 1.76028 1.11387 -12.035 0.000616551 1 
4526 1 2.24227 1.72499 -9.28458 0.00230209 1 
4618 1 35.8848 5.44282 -14.3664 0.000201177 1 
4619 1 34.9425 2.83852 -13.6261 0.000289177 1 
4620 1 35.4182 3.44543 -10.882 0.0011216 1 
4621 1 34.9584 1.44626 -7.40618 0.00518272 1 
23367 2 27.2434 7.87537 1.78949 6.08952 5 
4989 1 21.2961 1.38699 -13.9306 0.00026203 1 
4990 1 18.704 0.50683 -14.7858 0.00013672 1 
4991 1 19.1789 1.11407 -12.028 0.000561839 1 
5089 1 17.5241 2.83732 -13.6233 0.000238179 1 
5090 1 14.9306 1.9603 -14.4691 0.000118006 1 
5091 1 16.582 0.234927 -12.8792 0.000261743 1 
5092 1 15.397 2.5673 -11.7166 0.00046727 1 
5093 1 17.0535 0.842157 -10.1297 0.000972312 1 
5094 1 14.9172 0.572301 -8.22661 0.00201614 1 
5191 1 12.1037 6.01998 -14.8899 0.00010596 1 
5192 1 13.7487 4.29408 -13.3024 0.000233281 1 
5193 1 11.1624 3.41737 -14.1443 0.000121213 1 
5194 1 12.8059 1.69202 -12.5547 0.000287743 1 
5195 1 11.6264 4.02861 -11.3823 0.000524256 1 
5196 1 13.2662 2.30096 -9.79875 0.00129898 1 
5197 1 10.6838 1.42688 -10.6307 0.00094654 1 
5198 1 11.1421 2.03864 -7.85989 0.00510533 1 
5199 1 12.7775 0.298537 -6.30126 0.00876981 1 
5296 1 8.34247 7.47652 -14.5656 0.00014849 1 
5297 1 9.98571 5.75364 -12.9744 0.000239678 1 
5298 1 7.40317 4.87286 -13.8246 0.000189714 1 
5299 1 9.04639 3.15053 -12.2263 0.00033786 1 
5300 1 7.87412 5.48942 -11.0604 0.000884793 1 
5301 1 9.51336 3.76678 -9.45485 0.0013792 1 
5302 1 6.93902 2.88476 -10.3093 0.00136312 1 
5303 1 8.57378 1.16648 -8.693 0.00355237 1 
5304 1 7.41424 3.512 -7.5279 0.00771103 1 
5305 1 9.04081 1.79287 -5.88961 0.0224977 1 
5306 1 6.47954 0.910539 -6.76873 0.00756268 1 
5307 1 6.94505 1.5728 -3.9697 0.0803683 1 
5405 1 4.58111 8.92869 -14.2519 0.000242271 1 
5406 1 6.23066 7.2099 -12.6556 0.000671581 1 
5407 1 3.64059 6.32461 -13.5154 0.000329464 1 
5408 1 5.2921 4.60358 -11.919 0.000671408 1 
5409 1 4.11902 6.94213 -10.7621 0.00143957 1 
5410 1 5.76819 5.22592 -9.15802 0.00288369 1 
5411 1 3.17958 4.33319 -10.0272 0.00172697 1 
5412 1 4.83495 2.61923 -8.41171 0.00322714 1 
5413 1 3.65374 4.96499 -7.28154 0.00612319 1 
5414 1 5.30448 3.26692 -5.65106 0.0176606 1 
5415 1 2.72076 2.35379 -6.53809 0.00734733 1 
5416 1 4.37318 0.665583 -4.88611 0.0171926 1 
5417 1 3.16092 3.02845 -3.80088 0.0431064 1 
5418 1 4.78886 1.39061 -2.13603 0.157368 1 
5419 1 2.23914 0.410937 -3.03596 0.063988 1 
5420 1 2.52701 1.21133 -0.334837 6.00338 5 
5518 1 35.6469 10.3798 -13.9384 0.000191625 1 
5519 1 37.3016 8.65956 -12.3535 0.000547886 1 
5520 1 36.3599 6.05344 -11.6201 0.000810774 1 
5521 1 35.1749 8.38947 -10.4602 0.00127182 1 
5522 1 36.8389 6.67243 -8.88375 0.00309003 1 
5523 1 35.8983 4.05813 -8.15039 0.00427267 1 
5524 1 36.3648 4.6937 -5.42404 0.0163708 1 
5525 1 35.4322 2.07349 -4.6819 0.0223788 1 
5526 1 35.8191 2.77325 -1.97335 0.683426 1 
5527 1 34.8822 0.146204 -1.22094 1.53863 5 
5681 1 32.3472 1.96212 -14.4693 0.000193959 1 
5682 1 34.0003 0.235594 -12.8839 0.00034782 1 
5731 1 28.5783 3.41973 -14.1383 0.000268912 1 
5732 1 30.2211 1.69429 -12.5529 0.000592627 1 
5733 1 27.6366 0.818268 -13.3923 0.000358055 1 
5734 1 28.097 1.43102 -10.623 0.0019059 1 
5814 1 25.9956 2.54043 -14.9856 0.000174283 1 
5815 1 24.8227 4.8735 -13.8164 0.000255666 1 
5816 1 26.4629 3.15372 -12.2143 0.000981973 1 
5817 1 23.8833 2.27009 -13.0715 0.000412029 1 
5818 1 25.5235 0.551612 -11.4655 0.0012854 1 
5819 1 24.3568 2.88732 -10.2974 0.00158738 1 
5820 1 25.9893 1.17245 -8.67536 0.00739979 1 
5821 1 23.4203 0.28418 -9.54687 0.00236198 1 
5822 1 23.8967 0.916221 -6.75379 0.00973803 1 
5920 1 22.2364 3.99042 -14.6737 0.000195965 1 
5921 1 21.0613 6.32319 -13.5137 0.000401888 1 
5922 1 22.7113 4.60365 -11.9116 0.000773032 1 
5923 1 20.1196 3.71803 -12.7721 0.000476623 1 
5924 1 21.7728 1.99877 -11.1669 0.0010492 1 
5925 1 20.5952 4.33321 -10.0213 0.00187387 1 
5926 1 22.2505 2.6216 -8.40229 0.00412154 1 
5927 1 19.6563 1.72705 -9.27625 0.00222595 1 
5928 1 20.1289 2.35716 -6.53381 0.00849378 1 
5929 1 21.7867 0.67 -4.88103 0.0202206 1 
5930 1 19.6453 0.415012 -3.03724 0.062394 1 
24331 2 22.7653 41.8782 2.17773 6.67408 2 
6028 1 18.4668 5.44115 -14.3669 0.000209138 1 
6029 1 17.2856 7.77535 -13.2075 0.000341046 1 
6030 1 18.9393 6.05174 -11.6199 0.000803343 1 
6031 1 16.341 5.17059 -12.464 0.000423447 1 
6032 1 17.9956 3.44573 -10.8761 0.000921077 1 
6033 1 16.8073 5.77977 -9.7265 0.00167472 1 
6034 1 18.4658 4.0609 -8.14242 0.00345208 1 
6035 1 15.861 3.17514 -8.97607 0.00178477 1 
6036 1 17.5258 1.45488 -7.39438 0.00349174 1 
6037 1 16.3246 3.78253 -6.25342 0.00885224 1 
6038 1 17.9896 2.08321 -4.67534 0.0198114 1 
6039 1 15.3828 1.17723 -5.50269 0.00997283 1 
6040 1 15.8572 1.78902 -2.7979 0.236284 1 
6041 1 17.4556 0.155134 -1.21728 1.35654 5 
6137 1 15.6354 9.50035 -14.7909 0.000152002 1 
6139 1 14.6919 6.89713 -14.0485 0.00021338 1 
6140 1 13.5102 9.23404 -12.8791 0.000463465 1 
6141 1 15.1568 7.50726 -11.3029 0.000889395 1 
6142 1 12.568 6.63162 -12.1335 0.000430354 1 
6143 1 14.2108 4.90336 -10.5522 0.00109359 1 
6144 1 13.0315 7.24463 -9.38108 0.00161464 1 
6145 1 14.6697 5.51025 -7.81158 0.00720597 1 
6146 1 12.0885 4.6405 -8.61741 0.00334101 1 
6147 1 13.7246 2.90713 -7.05035 0.00619781 1 
6148 1 12.5592 5.24438 -5.83623 0.0352131 1 
6149 1 14.1976 3.49962 -4.31055 0.0417669 1 
6150 1 11.6151 2.63331 -5.08993 0.0230362 1 
6151 1 13.2573 0.86522 -3.5698 0.0837495 1 
6152 1 12.1504 3.15241 -2.3339 5.24738 5 
6153 1 13.9409 1.4092 -0.787086 7.18738 2 
6154 1 11.1886 0.46725 -1.57105 6.99805 5 
23229 1 21.3166 0.0174998 -7.65192 0.00509123 1 
6251 1 11.8674 10.9576 -14.4618 0.000268975 1 
6253 1 10.9255 8.35656 -13.718 0.000288671 1 
6254 1 9.75202 10.6943 -12.5392 0.00130922 1 
6255 1 11.3888 8.9731 -10.9557 0.00154743 1 
6256 1 8.81168 8.09371 -11.7992 0.000665791 1 
6257 1 10.4519 6.36954 -10.2122 0.00123941 1 
6258 1 9.27854 8.71951 -9.02409 0.00367407 1 
6259 1 10.9237 6.98574 -7.45613 0.0120348 1 
6260 1 8.34315 6.11417 -8.29777 0.00865166 1 
6261 1 9.9846 4.38476 -6.67513 0.0109949 1 
6262 1 8.81037 6.74372 -5.56446 0.131359 1 
6263 1 10.4764 4.9781 -3.88852 0.242124 1 
6264 1 7.88937 4.16638 -4.73345 0.103145 1 
6265 1 9.52498 2.41691 -3.08041 2.06055 5 
6266 1 8.37303 5.01393 -1.95468 3.6653 5 
6267 1 7.3557 2.42464 -1.23122 2.70126 5 
6364 1 8.10976 12.4118 -14.1388 0.00024725 1 
6365 1 5.52142 11.5305 -14.9919 0.000136233 1 
6366 1 7.16985 9.81208 -13.3947 0.000439146 1 
6367 1 5.99662 12.1457 -12.2313 0.000658495 1 
6368 1 7.6452 10.4345 -10.6219 0.00217276 1 
6369 1 5.05871 9.54664 -11.4918 0.00127881 1 
6370 1 6.70651 7.83605 -9.88382 0.0049187 1 
6371 1 5.5394 10.1787 -8.72459 0.00586124 1 
6372 1 7.17893 8.48733 -7.0895 0.0478051 1 
6373 1 4.59602 7.57632 -8.00974 0.00621171 1 
6374 1 6.23372 5.87003 -6.4005 0.0206822 1 
6375 1 5.048 8.25403 -5.25832 0.0443253 1 
6376 1 6.66033 6.56669 -3.681 0.247432 1 
6377 1 4.08968 5.64482 -4.54429 0.0276166 1 
6378 1 5.72848 3.98714 -2.93722 0.132008 1 
6379 1 4.43685 6.44123 -1.83225 0.419476 1 
6380 1 5.9932 4.84609 -0.349595 7.75529 5 
6381 1 3.46823 3.83324 -1.10701 1.1931 1 
6479 1 39.1831 13.8625 -13.8292 0.000179519 1 
6480 1 36.5903 12.9814 -14.6782 9.6375e-05 1 
6481 1 38.2427 11.2618 -13.0884 0.000346102 1 
6482 1 37.06 13.594 -11.9262 0.000407921 1 
6483 1 38.7191 11.8816 -10.3352 0.00155012 1 
6484 1 36.1176 10.9936 -11.1903 0.000758586 1 
6485 1 37.7799 9.28137 -9.60787 0.00227215 1 
6486 1 36.5909 11.6158 -8.45113 0.00295531 1 
6487 1 38.255 9.92432 -6.86505 0.0108407 1 
6488 1 35.6529 9.00916 -7.73294 0.00538587 1 
6489 1 37.3086 7.31497 -6.15172 0.0128149 1 
6490 1 36.1268 9.64218 -5.00651 0.034147 1 
6491 1 37.736 8.02556 -3.40675 0.0486361 1 
6492 1 35.1855 7.01927 -4.29496 0.0429583 1 
6493 1 36.7657 5.40602 -2.69701 0.190413 1 
6494 1 35.6182 7.7031 -1.48606 6.36129 2 
6585 1 35.4105 15.3128 -13.5128 0.000157389 1 
6586 1 34.9298 13.3245 -10.0216 0.00132032 1 
6684 1 33.7591 5.17225 -12.4627 0.000608344 1 
6685 1 32.8151 2.56768 -11.7201 0.000844196 1 
6686 1 34.4762 0.839491 -10.1385 0.00134337 1 
6687 1 33.2868 3.16943 -8.98839 0.00299338 1 
6688 1 32.3404 0.564354 -8.23804 0.00371067 1 
6689 1 32.8224 1.1507 -5.52588 0.0201392 1 
6723 1 32.1089 6.89885 -14.0415 0.000285858 1 
6724 1 29.521 6.02163 -14.883 0.000181311 1 
6725 1 31.1646 4.29628 -13.2986 0.000453371 1 
6726 1 29.9832 6.63395 -12.1229 0.00102342 1 
6727 1 31.6269 4.90422 -10.5518 0.00225646 1 
6728 1 29.0392 4.03203 -11.3752 0.00161993 1 
6729 1 30.6813 2.30095 -9.80245 0.00312073 1 
6730 1 29.4946 4.64411 -8.6168 0.0115471 1 
6731 1 31.1474 2.89328 -7.07512 0.0139572 1 
6732 1 28.5513 2.04507 -7.85262 0.0117632 1 
6733 1 30.1948 0.296538 -6.3074 0.018308 1 
6734 1 29.0227 2.65078 -5.09949 0.125466 1 
6735 1 30.6973 0.819973 -3.59103 0.146158 1 
6736 1 28.6196 0.39924 -1.5583 7.31721 5 
6802 1 28.3449 8.3572 -13.7085 0.000344794 1 
6803 1 25.763 7.47638 -14.5594 0.000201635 1 
6804 1 27.4032 5.7559 -12.9627 0.000533912 1 
6805 1 26.2322 8.0935 -11.7888 0.000726083 1 
6806 1 27.8662 6.37497 -10.1884 0.00339449 1 
6807 1 25.2934 5.49124 -11.0462 0.000936778 1 
6808 1 26.9271 3.7741 -9.43141 0.00702652 1 
6809 1 25.762 6.12003 -8.26965 0.00534377 1 
6810 1 27.39 4.40393 -6.62258 0.0676419 1 
6811 1 24.8302 3.51761 -7.51306 0.0074105 1 
6812 1 26.4543 1.80653 -5.85709 0.0533947 1 
6813 1 25.2946 4.17734 -4.72103 0.094469 1 
6814 1 26.9211 2.45661 -2.99911 1.62949 5 
6815 1 24.3612 1.58381 -3.94557 0.0943951 1 
6816 1 24.7124 2.42176 -1.18602 1.37132 5 
6909 1 22.9433 11.5302 -14.9941 0.000179224 1 
6910 1 24.5913 9.8108 -13.3936 0.000400112 1 
6911 1 22.0027 8.92749 -14.2531 0.000306967 1 
6912 1 23.6513 7.2089 -12.6509 0.000771678 1 
6913 1 22.4784 9.54528 -11.4945 0.00134538 1 
6914 1 24.1255 7.83486 -9.87806 0.00460114 1 
6915 1 21.537 6.94081 -10.7602 0.00169131 1 
6916 1 23.1857 5.22777 -9.1483 0.00321635 1 
6917 1 22.0074 7.57697 -8.01037 0.00792521 1 
6918 1 23.6459 5.87645 -6.39006 0.0223082 1 
6919 1 21.0635 4.96659 -7.27896 0.00762413 1 
6920 1 22.7155 3.27129 -5.64251 0.0253832 1 
6921 1 21.4872 5.64961 -4.55152 0.0294867 1 
6922 1 23.0977 3.99101 -2.93011 0.116869 1 
6923 1 20.5572 3.02845 -3.80746 0.0447183 1 
6924 1 22.1876 1.38832 -2.13 0.152662 1 
6925 1 20.8422 3.81958 -1.11634 1.34087 1 
6926 1 19.9297 1.20815 -0.329934 5.95046 5 
7023 1 19.1719 12.9827 -14.6847 0.000116412 1 
7024 1 20.8248 11.2619 -13.0949 0.000420463 1 
7025 1 18.2292 10.3797 -13.9465 0.000215176 1 
7026 1 19.8831 8.65808 -12.3583 0.000627429 1 
7027 1 18.7001 10.9945 -11.2028 0.000772934 1 
7028 1 20.3568 9.28051 -9.61494 0.00239257 1 
7029 1 17.7554 8.38786 -10.469 0.00120484 1 
7030 1 19.4106 6.6712 -8.88373 0.00305293 1 
7031 1 18.2257 9.00771 -7.74288 0.00569339 1 
7032 1 19.8681 7.31673 -6.15732 0.0138739 1 
7033 1 17.2724 6.39131 -7.0057 0.0085162 1 
7034 1 18.9227 4.69792 -5.42347 0.0181547 1 
7035 1 17.738 7.02124 -4.29026 0.0453575 1 
7036 1 19.3224 5.40913 -2.7072 0.215463 1 
7037 1 16.7945 4.40427 -3.54067 0.0880747 1 
7038 1 18.3843 2.76989 -1.97389 0.634197 1 
7039 1 17.3746 5.05738 -0.693152 6.17435 2 
7137 1 15.4001 14.4364 -14.363 0.000141071 1 
7138 1 17.0462 12.7145 -12.7813 0.000320292 1 
7139 1 14.4543 11.8354 -13.6214 0.000316795 1 
7140 1 16.1018 10.1116 -12.0444 0.000574629 1 
7141 1 14.9177 12.4473 -10.8703 0.00142777 1 
7142 1 16.5703 10.724 -9.30905 0.00208036 1 
7143 1 13.9727 9.84647 -10.131 0.00215435 1 
7144 1 15.6223 8.11485 -8.57099 0.00456997 1 
7145 1 14.4443 10.4493 -7.39882 0.0118549 1 
7146 1 16.0981 8.70742 -5.85888 0.032549 1 
7147 1 13.5031 7.85114 -6.63228 0.016472 1 
7148 1 15.1426 6.09572 -5.08496 0.040954 1 
7149 1 13.9964 8.36238 -3.88364 1.59144 5 
7150 1 15.6387 6.65786 -2.36982 6.79607 5 
7151 1 13.0509 5.80748 -3.01738 2.15172 5 
7152 1 14.7692 4.04348 -1.56987 7.01386 5 
7250 1 11.6376 15.8906 -14.0386 0.000157441 1 
7251 1 13.2775 14.1692 -12.447 0.000687556 1 
7252 1 10.6939 13.2919 -13.2888 0.000456384 1 
7253 1 12.3307 11.5717 -11.7005 0.00163527 1 
7254 1 11.1627 13.9077 -10.5159 0.00294276 1 
7255 1 12.7921 12.1866 -8.9374 0.00970669 1 
7256 1 10.2204 11.3179 -9.75499 0.00995845 1 
7257 1 11.8503 9.59084 -8.1937 0.00989747 1 
7258 1 10.6914 11.9549 -6.94162 0.0833913 1 
7259 1 12.3357 10.2094 -5.45197 0.207731 1 
7260 1 9.74237 9.35434 -6.23662 0.0332469 1 
7261 1 11.4197 7.59487 -4.72259 0.107493 1 
7262 1 10.2631 10.0068 -3.49034 1.01718 5 
7263 1 11.948 8.16172 -1.92821 6.92359 5 
7264 1 9.3253 7.4174 -2.94429 1.59088 5 
7265 1 9.67741 7.80878 -0.394402 9.91431 5 
7362 1 9.05064 15.0121 -14.8856 0.000112356 1 
7363 1 7.87453 17.3447 -13.7245 0.000250021 1 
7364 1 9.52274 15.6238 -12.1245 0.000641527 1 
7365 1 6.93493 14.744 -12.9773 0.000357182 1 
7366 1 8.58368 13.0283 -11.3704 0.00119999 1 
7367 1 7.40903 15.3616 -10.2187 0.0018491 1 
7368 1 9.05983 13.6541 -8.58939 0.00514425 1 
7369 1 6.47459 12.7701 -9.46598 0.00287598 1 
7370 1 8.12273 11.0723 -7.83027 0.0116945 1 
7371 1 6.94739 13.4162 -6.69547 0.0171467 1 
7372 1 8.59804 11.753 -5.01347 0.160443 1 
7373 1 6.01699 10.8401 -5.94139 0.029701 1 
7374 1 7.63613 9.18844 -4.23283 0.573079 1 
7375 1 6.47277 11.5662 -3.13608 0.369032 1 
7376 1 8.2556 10.0979 -1.28017 8.11517 5 
7377 1 5.42676 9.06202 -2.50414 0.40756 1 
7378 1 7.02416 7.51111 -1.12703 6.43443 5 
7476 1 40.1242 16.4644 -14.5725 0.000120625 1 
7477 1 38.9455 18.7978 -13.4099 0.00021334 1 
7478 1 40.5931 17.077 -11.8215 0.000608759 1 
7479 1 38.0018 16.1943 -12.6681 0.000263892 1 
7480 1 39.6557 14.4784 -11.0758 0.000844292 1 
7481 1 38.4651 16.8113 -9.92038 0.00135866 1 
7482 1 40.1257 15.1063 -8.32735 0.00423368 1 
7483 1 37.5289 14.2144 -9.1799 0.00177667 1 
7484 1 39.1957 12.5168 -7.58261 0.00629899 1 
7485 1 37.9912 14.8498 -6.44271 0.0113364 1 
7486 1 39.6528 13.182 -4.82876 0.0558644 1 
7487 1 37.0628 12.2534 -5.71911 0.018188 1 
7488 1 38.6929 10.6201 -4.11559 0.0491902 1 
7489 1 37.465 12.9307 -2.98914 1.39567 5 
7490 1 39.0237 11.3639 -1.33432 5.85997 2 
7491 1 36.501 10.3217 -2.25397 5.6074 5 
7492 1 38.1277 8.77102 -0.545621 5.89482 2 
7588 1 37.3023 20.5219 -14.9947 0.0001057 1 
7589 1 36.3561 17.9157 -14.2561 0.000125042 1 
7590 1 35.1831 20.2475 -13.0914 0.000303518 1 
7591 1 36.821 18.5255 -11.5043 0.000769287 1 
7592 1 35.8747 15.9243 -10.7599 0.000926345 1 
7593 1 36.3319 16.5428 -8.00657 0.00652315 1 
7594 1 35.3956 13.9402 -7.28164 0.00685234 1 
7595 1 35.8638 14.5659 -4.55539 0.209349 1 
7596 1 34.9381 11.9466 -3.85752 0.874649 5 
7597 1 35.9061 12.5596 -0.730626 5.55742 5 
7728 1 34.7031 7.77691 -13.201 0.000356095 1 
7729 1 34.2311 5.77992 -9.72908 0.00217087 1 
7730 1 34.7124 6.39018 -7.01514 0.0113577 1 
7731 1 33.7697 3.76571 -6.27869 0.0170908 1 
7732 1 34.2376 4.39502 -3.5636 0.109062 1 
7733 1 33.2989 1.75622 -2.82662 0.347526 1 
7753 1 33.0535 9.50076 -14.7827 0.000154907 1 
7754 1 31.8742 11.8339 -13.6115 0.000290798 1 
7755 1 33.519 10.1114 -12.0306 0.000684328 1 
7756 1 30.9284 9.23461 -12.8668 0.000558651 1 
7757 1 32.573 7.50893 -11.293 0.00132521 1 
7758 1 31.3885 9.84676 -10.1086 0.00281675 1 
7759 1 33.0405 8.11559 -8.56091 0.00514691 1 
7760 1 30.4409 7.24647 -9.36805 0.00680477 1 
7761 1 32.094 5.50219 -7.82775 0.00939626 1 
7762 1 30.9059 7.84323 -6.63747 0.0578916 1 
7763 1 32.6003 6.0658 -5.13622 0.0627035 1 
7764 1 29.9623 5.23777 -5.8864 0.112797 1 
7765 1 31.6565 3.43506 -4.37431 0.0981485 1 
7766 1 30.5011 5.6487 -3.22856 7.65912 5 
7767 1 32.2742 3.99651 -1.60146 6.86148 2 
7768 1 29.5677 3.00901 -2.40124 7.7628 5 
7769 1 31.4379 1.35868 -0.786108 6.88392 2 
7821 1 29.2883 10.9568 -14.4543 0.00023852 1 
7822 1 28.1159 13.2901 -13.2846 0.000451091 1 
7823 1 29.7517 11.5699 -11.6878 0.00122636 1 
7824 1 27.1737 10.6932 -12.5327 0.00126247 1 
7825 1 28.8071 8.97432 -10.9385 0.00168937 1 
7826 1 27.6417 11.3156 -9.74612 0.00878812 1 
7827 1 29.2641 9.59378 -8.15938 0.0100546 1 
7828 1 26.6983 8.71891 -9.00632 0.00251202 1 
7829 1 28.3283 6.99966 -7.39747 0.0343677 1 
7830 1 27.1554 9.35458 -6.20741 0.0396189 1 
7831 1 28.8263 7.60002 -4.58256 2.27516 5 
7832 1 26.2237 6.76217 -5.49956 0.101523 1 
7833 1 27.8611 5.03556 -3.75322 2.02341 5 
7834 1 26.6574 7.53077 -2.82714 6.47212 5 
7835 1 25.6203 4.9726 -1.9993 2.30589 5 
7917 1 26.4724 15.0114 -14.8855 0.000153928 1 
7919 1 25.5318 12.411 -14.138 0.00033325 1 
7920 1 24.3562 14.7446 -12.9803 0.000488482 1 
7921 1 26.005 13.0275 -11.3698 0.00163878 1 
7922 1 23.4175 12.1457 -12.2355 0.000699073 1 
7923 1 25.0648 10.4322 -10.6235 0.0013503 1 
7924 1 23.891 12.7721 -9.47471 0.00275736 1 
7925 1 25.5347 11.0687 -7.84458 0.00779735 1 
7926 1 22.9524 10.1784 -8.73134 0.00605558 1 
7927 1 24.5916 8.48655 -7.08511 0.0387659 1 
7928 1 23.4091 10.8492 -5.96046 0.0214671 1 
7929 1 25.0142 9.21122 -4.25943 0.322566 1 
7930 1 22.4415 8.26143 -5.26711 0.037224 1 
7931 1 24.0448 6.59911 -3.67768 0.123968 1 
7932 1 22.8044 9.06795 -2.51588 0.332733 1 
7933 1 24.4216 7.53645 -1.09499 8.68429 5 
7934 1 21.8252 6.46285 -1.85302 0.48398 1 
7935 1 23.2755 4.86308 -0.312139 7.16139 5 
8032 1 22.7055 16.4658 -14.5757 0.000147741 1 
8034 1 21.7649 13.8638 -13.8344 0.000227315 1 
8035 1 20.5822 16.1979 -12.6738 0.00028532 1 
8036 1 22.2359 14.4818 -11.0835 0.000938503 1 
8037 1 19.6414 13.5971 -11.9359 0.000457368 1 
8038 1 21.2986 11.8832 -10.345 0.00164735 1 
8039 1 20.109 14.2209 -9.19234 0.00200304 1 
8040 1 21.7662 12.5233 -7.59608 0.00528084 1 
8041 1 19.1711 11.6189 -8.46694 0.00329354 1 
8042 1 20.8197 9.92719 -6.87488 0.0100472 1 
8043 1 19.6335 12.26 -5.73086 0.0173249 1 
8044 1 21.2443 10.63 -4.12653 0.0415479 1 
8045 1 18.6841 9.64592 -5.0146 0.0278404 1 
8046 1 20.2841 8.0331 -3.42181 0.0574059 1 
8047 1 19.0578 10.3254 -2.26399 5.55913 5 
8048 1 20.6792 8.78165 -0.558356 5.9019 2 
8049 1 18.1849 7.70091 -1.496 6.30254 2 
8146 1 18.9358 17.9185 -14.2595 0.000130146 1 
8148 1 17.9906 15.316 -13.5192 0.000182559 1 
8149 1 16.8134 17.6465 -12.3499 0.000511631 1 
8150 1 18.4547 15.9301 -10.7678 0.00107838 1 
8151 1 15.865 15.047 -11.6077 0.000776702 1 
8152 1 17.5123 13.3294 -10.0371 0.00137187 1 
8153 1 16.3291 15.6574 -8.84811 0.00424677 1 
8154 1 17.9822 13.9489 -7.30139 0.00842453 1 
8155 1 15.3827 13.0534 -8.12642 0.00724168 1 
8156 1 17.049 11.3328 -6.58565 0.0115361 1 
8157 1 15.8813 13.6412 -5.40007 0.0774918 1 
8158 1 17.5046 11.9493 -3.86597 0.763382 1 
8159 1 14.9613 11.0173 -4.69363 0.311549 1 
8160 1 16.5439 9.29029 -3.16565 5.51574 5 
8161 1 15.817 11.4858 -1.73908 6.40122 5 
8162 1 15.5766 8.76532 -0.655654 6.92477 5 
8260 1 15.1723 19.3698 -13.9398 0.000204206 1 
8261 1 12.5822 18.4924 -14.7851 0.000119328 1 
8262 1 14.2253 16.7678 -13.1939 0.000259386 1 
8263 1 13.0536 19.097 -12.0332 0.000671286 1 
8264 1 14.6947 17.373 -10.4309 0.00232786 1 
8265 1 12.1081 16.4994 -11.2768 0.00109159 1 
8266 1 13.742 14.7791 -9.68184 0.00442259 1 
8267 1 12.5833 17.102 -8.50362 0.0110002 1 
8268 1 14.2184 15.3737 -6.90961 0.0211639 1 
8269 1 11.6339 14.5265 -7.72023 0.022151 1 
8270 1 13.2643 12.786 -6.17841 0.104678 1 
8271 1 12.1195 15.1115 -4.90552 2.25 5 
8272 1 13.8737 13.2886 -3.44869 7.48816 5 
8273 1 11.1948 12.6004 -4.00606 5.50577 5 
8274 1 13.0992 10.6497 -2.74259 9.28113 5 
8275 1 11.0242 11.2924 -1.2024 8.03808 5 
8373 1 11.4073 20.8261 -13.6208 0.000231396 1 
8374 1 8.81686 19.9489 -14.4662 0.000142979 1 
8375 1 10.4634 18.2227 -12.878 0.000433077 1 
8376 1 9.2848 20.5591 -11.7177 0.000622958 1 
8377 1 10.9338 18.8291 -10.1298 0.00381381 1 
8378 1 8.34405 17.9568 -10.974 0.00173514 1 
8379 1 9.99791 16.2382 -9.35603 0.00465925 1 
8380 1 8.80591 18.5748 -8.23579 0.0152292 1 
8381 1 10.4753 16.8622 -6.57465 0.059647 1 
8382 1 7.88089 15.9918 -7.46191 0.0152018 1 
8383 1 9.53556 14.2965 -5.78583 0.0869706 1 
8384 1 8.31224 16.6792 -4.7376 0.112734 1 
8385 1 9.9818 15.1212 -3.00401 3.37987 5 
8386 1 7.37294 14.1433 -3.94033 0.165941 1 
8387 1 8.93501 12.6847 -2.16477 2.00839 5 
8388 1 7.55514 15.0464 -1.23303 6.77077 5 
8389 1 6.63056 12.4613 -0.394503 7.15359 2 
8486 1 40.8375 24.0106 -14.8754 8.00542e-05 1 
8487 1 42.4798 22.2855 -13.2972 0.000222004 1 
8488 1 39.8912 21.4041 -14.1456 0.000147413 1 
8489 1 41.5347 19.6801 -12.5633 0.000404399 1 
8490 1 40.357 22.018 -11.3938 0.000688921 1 
8491 1 41.9962 20.2982 -9.81932 0.00219824 1 
8492 1 39.4081 19.4124 -10.662 0.00110681 1 
8493 1 41.0562 17.698 -9.078 0.00380424 1 
8494 1 39.8582 20.0403 -7.92036 0.00625705 1 
8495 1 41.4956 18.3466 -6.35117 0.0259426 1 
8496 1 38.9174 17.4426 -7.18276 0.00787098 1 
8497 1 40.5722 15.7645 -5.59145 0.0373323 1 
8498 1 39.3445 18.1122 -4.46101 0.20874 1 
8499 1 40.9031 16.5444 -2.88153 1.18378 1 
8500 1 38.4059 15.5244 -3.72685 0.569185 1 
8501 1 39.9596 13.9516 -2.10827 2.29464 5 
8502 1 39.1912 16.2666 -0.651926 5.61922 5 
8599 1 37.0783 25.4627 -14.5508 0.000115182 1 
8600 1 38.7199 23.739 -12.9707 0.000278825 1 
8601 1 36.1313 22.8556 -13.8246 0.00020891 1 
8602 1 37.7705 21.1317 -12.2429 0.00043188 1 
8603 1 36.6055 23.4629 -11.0681 0.00110926 1 
8604 1 38.2333 21.7461 -9.48831 0.00245034 1 
8605 1 35.6527 20.8532 -10.3367 0.00179846 1 
8606 1 37.2768 19.1408 -8.75092 0.00572497 1 
8607 1 36.1208 21.4552 -7.5661 0.0106379 1 
8608 1 37.7234 19.7629 -5.99095 0.0384532 1 
8609 1 35.162 18.8538 -6.79037 0.036038 1 
8610 1 36.7885 17.1791 -5.2536 0.0719242 1 
8611 1 35.6342 19.4557 -3.9296 1.72463 5 
8612 1 37.3739 17.8039 -2.41657 6.11456 5 
8613 1 36.5765 15.1991 -1.61997 6.24374 5 
8614 1 34.1434 16.2926 -0.669959 5.39214 5 
8703 1 34.9648 25.1869 -12.649 0.000421643 1 
24296 2 23.4933 36.8735 2.11256 8.44649 5 
8789 1 34.8071 5.06253 -0.685555 6.28117 2 
8797 1 32.8206 14.434 -14.3567 0.000119723 1 
8798 1 34.4649 12.7121 -12.7706 0.000300943 1 
8799 1 33.2853 15.0424 -11.5993 0.000623591 1 
8800 1 32.3365 12.4439 -10.8544 0.00130979 1 
8801 1 33.9844 10.7225 -9.287 0.00283257 1 
8802 1 32.7974 13.0468 -8.1015 0.00657921 1 
8803 1 34.459 11.3296 -6.55825 0.0107762 1 
8804 1 31.851 10.4478 -7.35437 0.0142287 1 
8805 1 33.5305 8.71104 -5.85562 0.0315243 1 
8806 1 32.3517 11.0185 -4.61728 0.399069 1 
8807 1 33.9939 9.29034 -3.16077 5.54888 5 
8808 1 31.4502 8.33899 -3.98182 3.67897 5 
8809 1 33.0952 6.65522 -2.39634 6.81166 2 
8810 1 30.5501 7.66822 -1.48972 8.96886 5 
8847 1 30.0035 18.491 -14.7844 0.000154584 1 
8848 1 31.6468 16.7648 -13.1908 0.000225329 1 
8849 1 29.0594 15.8888 -14.0368 0.000169454 1 
8850 1 30.6989 14.1659 -12.4398 0.000568876 1 
8851 1 29.5298 16.4966 -11.2763 0.00094696 1 
8852 1 31.1627 14.7733 -9.67267 0.00358108 1 
8853 1 28.5844 13.9043 -10.5106 0.00269141 1 
8854 1 30.212 12.1825 -8.9156 0.00617649 1 
8855 1 29.0535 14.5216 -7.71552 0.0191142 1 
8856 1 30.677 12.7759 -6.13963 0.0767656 1 
8857 1 28.1099 11.9505 -6.93135 0.073303 1 
8858 1 29.7302 10.1989 -5.37047 0.301992 1 
8859 1 28.6007 12.6481 -4.01432 4.62101 5 
8860 1 30.4862 10.4817 -2.60168 8.9401 5 
8861 1 27.6435 10.1077 -3.45707 3.59371 5 
8862 1 28.1584 8.87854 -0.963988 8.77012 5 
8863 1 28.4546 11.6125 -1.19334 5.96853 5 
8864 1 27.5599 6.31606 -0.546112 5.88428 5 
8933 1 26.2375 19.9494 -14.4676 0.000173286 1 
8934 1 27.8847 18.2223 -12.8792 0.000520478 1 
8935 1 25.2955 17.3454 -13.7267 0.00030692 1 
8936 1 26.9441 15.6228 -12.1258 0.00073293 1 
8937 1 25.764 17.9587 -10.9784 0.00186407 1 
8938 1 27.4173 16.2374 -9.36214 0.00447837 1 
8939 1 24.8283 15.3636 -10.2238 0.00231935 1 
8940 1 26.4787 13.6546 -8.58971 0.00828092 1 
8941 1 25.2951 15.9981 -7.47088 0.016813 1 
8942 1 26.9452 14.3035 -5.78712 0.113685 1 
8943 1 24.3507 13.4266 -6.71508 0.016679 1 
8944 1 25.9805 11.7555 -5.06912 0.111202 1 
8945 1 24.7558 14.172 -3.97054 0.0833934 1 
8946 1 26.2958 12.6563 -2.32824 1.88323 5 
8947 1 23.8453 11.5735 -3.15996 0.3036 1 
8948 1 25.6039 10.0941 -1.31564 7.12654 5 
8949 1 24.0605 12.4703 -0.406425 6.68576 5 
9044 1 22.4711 21.406 -14.1474 0.000160569 1 
9045 1 24.1149 19.6824 -12.5664 0.0004564 1 
9046 1 21.5255 18.8005 -13.4131 0.000226712 1 
9047 1 23.1735 17.08 -11.8262 0.000679772 1 
9048 1 21.987 19.417 -10.6655 0.00116977 1 
9049 1 23.6346 17.704 -9.08426 0.00373664 1 
9050 1 21.0443 16.8179 -9.92702 0.00132283 1 
9051 1 22.701 15.1145 -8.33755 0.00381298 1 
9052 1 21.496 17.4518 -7.1863 0.00672316 1 
9053 1 23.1426 15.7797 -5.59908 0.0259658 1 
9054 1 20.5689 14.8599 -6.45238 0.0109054 1 
9055 1 22.2115 13.1938 -4.84029 0.0422305 1 
9056 1 20.9876 15.5319 -3.72656 0.498817 1 
9057 1 22.5364 13.9593 -2.10299 1.94226 5 
9058 1 20.0255 12.9402 -2.99311 1.29176 5 
9059 1 21.5814 11.3789 -1.34195 5.76695 5 
9156 1 19.882 20.524 -14.9965 0.000103981 1 
9157 1 18.7104 22.8574 -13.8253 0.000209972 1 
9158 1 20.3495 21.1347 -12.2447 0.000466608 1 
9159 1 17.7619 20.2502 -13.093 0.000301868 1 
9160 1 19.4 18.5301 -11.5078 0.000864545 1 
9161 1 18.2307 20.8564 -10.3371 0.00188143 1 
9162 1 19.8551 19.1466 -8.75262 0.00599941 1 
9163 1 17.2782 18.2543 -9.58528 0.00472582 1 
9164 1 18.9129 16.5517 -8.01389 0.00659421 1 
9165 1 17.739 18.8591 -6.7891 0.0392712 1 
9166 1 19.3706 17.1873 -5.2554 0.0663468 1 
9167 1 16.8001 16.263 -6.07378 0.0307154 1 
9168 1 18.4486 14.5755 -4.57134 0.216159 1 
9169 1 17.3656 16.8718 -3.27935 5.34648 5 
9170 1 19.15 15.2059 -1.62756 6.22711 2 
9171 1 16.547 14.2019 -2.56846 7.01862 2 
9172 1 18.4361 12.5618 -0.753191 5.61577 5 
9270 1 16.1194 21.9761 -14.6766 0.00015862 1 
9271 1 14.949 24.3089 -13.5052 0.000229292 1 
9272 1 16.5942 22.5796 -11.9262 0.000874578 1 
9273 1 14.0001 21.7011 -12.7765 0.000587555 1 
9274 1 15.6447 19.9716 -11.1876 0.00134786 1 
9275 1 14.4749 22.2963 -10.0369 0.00482854 1 
9276 1 16.1217 20.5617 -8.42967 0.0102722 1 
9277 1 13.529 19.693 -9.28409 0.0054676 1 
9278 1 15.1686 17.9674 -7.64643 0.0217248 1 
9279 1 14.0119 20.2663 -6.54091 0.0442032 1 
9280 1 15.6438 18.52 -4.81117 0.186049 1 
9281 1 13.0686 17.6704 -5.70713 0.154866 1 
9282 1 14.7412 15.9163 -4.13365 5.68843 5 
9283 1 13.5901 18.2166 -2.86893 8.56395 5 
9284 1 14.1358 15.1824 -1.52794 9.67166 5 
9285 1 11.831 16.6464 -1.37647 12.0032 5 
9286 1 13.5239 12.4975 -0.72562 5.35789 5 
23563 2 40.9134 36.8741 2.11259 8.44841 5 
9384 1 12.3538 23.4319 -14.3549 0.00018935 1 
9385 1 11.1799 25.7674 -13.1801 0.000276401 1 
9386 1 12.8272 24.0352 -11.611 0.00122365 1 
9387 1 10.2309 23.1627 -12.4529 0.000450294 1 
9388 1 11.8773 21.43 -10.8758 0.00111077 1 
9389 1 10.6967 23.7702 -9.71288 0.00291546 1 
9390 1 12.3425 22.0244 -8.14191 0.00637934 1 
9391 1 9.74665 21.1736 -8.97574 0.00343576 1 
9392 1 11.4011 19.4285 -7.40349 0.0436989 1 
9393 1 10.1866 21.7955 -6.23687 0.0399648 1 
9394 1 11.8605 20.04 -4.7506 0.470104 1 
9395 1 9.23158 19.215 -5.53735 0.1684 1 
9396 1 10.9316 17.616 -3.80618 3.3575 5 
9397 1 9.56184 20.0444 -2.94496 6.49164 5 
9398 1 10.4318 19.0729 -0.712242 9.75524 5 
9399 1 8.60382 17.5338 -2.11705 7.65391 5 
9400 1 9.54038 16.4624 0.0896775 7.96586 5 
9497 1 44.3743 27.4953 -14.7526 7.40721e-05 1 
9499 1 43.4268 24.8905 -14.0267 0.000138604 1 
9500 1 42.2554 27.2253 -12.8452 0.000263456 1 
9501 1 43.8945 25.5012 -11.2746 0.000854946 1 
9502 1 41.3067 24.6224 -12.1186 0.000437648 1 
9503 1 42.9442 22.9005 -10.5469 0.00116969 1 
9504 1 41.7721 25.2406 -9.35416 0.00275854 1 
9505 1 43.4024 23.5279 -7.7956 0.00801356 1 
9506 1 40.8156 22.6434 -8.64071 0.00408796 1 
9507 1 42.442 20.939 -7.08659 0.0154042 1 
9508 1 41.2713 23.2995 -5.8813 0.0303295 1 
9509 1 42.8409 21.654 -4.35766 0.21499 1 
9510 1 40.2987 20.7019 -5.18694 0.0683118 1 
9511 1 41.8532 19.0929 -3.63719 0.533973 1 
9512 1 40.7832 21.428 -2.30895 5.24591 2 
9513 1 42.5125 19.9605 -0.567912 2.62026 5 
9514 1 39.9479 18.8727 -1.49786 5.53405 2 
23952 2 44.3785 53.1546 2.16876 7.81229 2 
9611 1 40.6137 28.9489 -14.423 9.74866e-05 1 
9613 1 39.6675 26.3442 -13.6965 0.000174163 1 
9614 1 38.5019 28.6731 -12.5161 0.000369598 1 
9615 1 40.1408 26.9534 -10.9309 0.000971408 1 
9616 1 37.5551 26.069 -11.789 0.000735969 1 
9617 1 39.1898 24.3526 -10.2077 0.00167976 1 
9618 1 38.0347 26.6718 -9.01128 0.003904 1 
9619 1 39.6575 24.9719 -7.42548 0.00999491 1 
9620 1 37.0815 24.0673 -8.29859 0.005127 1 
9621 1 38.6923 22.3664 -6.72502 0.0144223 1 
9622 1 37.5526 24.6486 -5.50661 0.0683119 1 
9623 1 39.1811 22.9814 -3.96342 1.3877 5 
9624 1 36.5865 22.023 -4.77256 0.724317 1 
9625 1 38.2308 20.3799 -3.22683 5.63051 5 
9626 1 37.7697 22.5687 -1.62781 6.08796 5 
9627 1 37.2661 19.9411 -0.647775 6.6447 5 
9723 1 36.8545 30.3985 -14.099 0.000136023 1 
9724 1 35.9109 27.7926 -13.3738 0.000249833 1 
9725 1 36.3958 28.3904 -10.6112 0.0012962 1 
9726 1 35.4496 25.7862 -9.88338 0.00304647 1 
9727 1 35.9435 26.3702 -7.0897 0.0296148 1 
9728 1 34.9873 23.7544 -6.41355 0.069662 1 
9729 1 35.5678 24.2715 -3.5472 2.69593 5 
9852 1 34.2345 17.6426 -12.3463 0.000422652 1 
9853 1 34.6999 18.2488 -9.58285 0.00403792 1 
9854 1 33.7484 15.6499 -8.83834 0.00346918 1 
9855 1 34.215 16.251 -6.06346 0.0315162 1 
9856 1 33.2772 13.6291 -5.36008 0.07472 1 
9857 1 33.9507 14.2021 -2.55158 7.29262 2 
9858 1 33.3016 11.4847 -1.71172 6.24708 5 
9859 1 33.0095 8.78888 -0.62736 0.930147 5 
9881 1 33.5403 21.9747 -14.6761 0.000173794 1 
9883 1 32.5936 19.3677 -13.9385 0.000233951 1 
9884 1 31.4215 21.7003 -12.7771 0.000618871 1 
9885 1 33.0666 19.9691 -11.1874 0.00138212 1 
9886 1 30.4753 19.0954 -12.0337 0.000783809 1 
9887 1 32.1166 17.3687 -10.4288 0.00188045 1 