ITEM: TIMESTEP
0
ITEM: NUMBER OF ATOMS
5888
ITEM: BOX BOUNDS xy xz yz pp pp ss
-7.482459489 70.14805770700001 -7.482459489
0 46.984654942 0
-134.008407421327 148.0161802373572 0
ITEM: ATOMS id type x y z c_csym c_cna 
787 1 61.7248 46.9068 -14.828 0.000108006 1 
1426 1 69.457 2.74108 -0.302346 8.60033 5 
1429 1 68.2733 4.99927 -12.3667 0.000218481 1 
1430 1 69.2127 5.49049 -9.70242 0.0010104 1 
1431 1 67.8102 3.17568 -8.7685 0.00228685 1 
1432 1 68.7633 3.67931 -6.11585 0.0251689 1 
1433 1 69.2262 1.1354 -7.3294 0.0106987 1 
1434 1 67.3529 1.33549 -5.22406 0.107735 1 
1435 1 68.239 1.94942 -2.60784 7.414 5 
1453 1 68.7418 2.46166 -13.5933 0.000160019 1 
1454 1 65.9358 2.19227 -14.0972 8.19757e-05 1 
1455 1 66.872 2.68483 -11.4317 0.00030872 1 
1456 1 67.3389 0.147064 -12.6639 0.000185508 1 
1457 1 68.2766 0.640629 -9.99549 0.00123242 1 
1458 1 65.4717 0.370986 -10.4968 0.000803696 1 
1459 1 66.403 0.855043 -7.83279 0.0109223 1 
1496 1 57.0532 46.8634 -13.1657 0.000153694 1 
2336 1 -0.962487 11.1088 -4.69453 0.0874892 1 
2337 1 -1.2581 9.39287 -0.970635 4.55536 5 
2341 1 -0.944768 14.2325 -14.437 4.26307e-05 1 
2342 1 67.7983 11.9121 -13.5116 8.2089e-05 1 
2343 1 -1.41745 12.4101 -10.8578 0.000292681 1 
2344 1 -0.94582 9.8606 -12.0844 0.000353732 1 
2345 1 67.3271 10.0843 -9.93706 0.0017688 1 
2346 1 68.26 10.5855 -7.30018 0.0133494 1 
2347 1 68.7389 8.03167 -8.49567 0.00150992 1 
2348 1 66.8624 8.25025 -6.35967 0.0303838 1 
2349 1 67.8448 8.77897 -3.70935 0.267723 1 
2350 1 68.3041 6.20963 -4.88313 0.123073 1 
2351 1 -0.802542 6.80414 -2.19506 1.3752 5 
2352 1 66.3211 6.5216 -2.92819 0.730576 1 
2353 1 67.2966 7.16092 -0.479485 6.59039 5 
2354 1 67.857 4.62252 -1.61343 5.72362 5 
2376 1 68.2684 9.36647 -14.7385 8.13973e-05 1 
2378 1 66.394 9.59046 -12.5844 0.000345638 1 
2379 1 66.8663 7.04727 -13.8055 0.000124177 1 
2380 1 67.8014 7.5387 -11.1493 0.000467828 1 
2381 1 64.9895 7.27067 -11.6504 0.000568061 1 
2382 1 65.9216 7.76002 -9.00431 0.00276431 1 
2383 1 66.399 5.2215 -10.2105 0.000775995 1 
2384 1 67.3381 5.71473 -7.55552 0.00710507 1 
2385 1 64.5084 5.44299 -8.06064 0.0135013 1 
2386 1 65.4162 5.94141 -5.45578 0.12056 1 
2387 1 65.915 3.3916 -6.62611 0.0413095 1 
2388 1 66.845 3.91445 -4.06646 0.326297 1 
2389 1 64.0364 3.63322 -4.37884 0.136977 1 
2390 1 65.0792 4.25895 -1.80713 4.35212 5 
2391 1 65.5464 1.59868 -3.07622 3.29923 5 
2392 1 64.7916 1.15802 -0.588471 12.4991 5 
2436 1 64.0591 6.77903 -14.3062 0.000133774 1 
2438 1 65.4649 4.73113 -12.8697 0.000180645 1 
2439 1 62.6591 4.46467 -13.3694 0.000244408 1 
2440 1 63.5878 4.95601 -10.7077 0.00156604 1 
2441 1 64.0658 2.41821 -11.9324 0.000439278 1 
2442 1 64.9968 2.9073 -9.2688 0.00361668 1 
2443 1 62.1989 2.64896 -9.75591 0.00144449 1 
2444 1 63.1284 3.13815 -7.07036 0.00926785 1 
2445 1 63.6114 0.600608 -8.31466 0.00320619 1 
2446 1 64.5321 1.07469 -5.61784 0.0725561 1 
2447 1 61.7736 0.833097 -6.12446 0.0474221 1 
2448 1 62.7315 1.29776 -3.3021 3.38482 5 
2514 1 63.1316 1.9243 -14.5997 9.43852e-05 1 
2516 1 61.2647 2.15404 -12.4328 0.000380898 1 
2517 1 62.6722 0.108776 -10.9954 0.000650553 1 
2518 1 52.3905 46.8279 -11.5077 0.00110002 1 
2519 1 60.8171 0.342269 -8.82252 0.00576772 1 
3527 1 -0.928697 19.8187 -9.29953 0.000664444 1 
3528 1 -1.41532 18.0064 -5.73332 0.0144226 1 
3529 1 -1.9932 16.2781 -2.2245 7.02726 5 
3537 1 -2.81054 18.8229 -14.63 4.57008e-05 1 
3538 1 -1.87231 19.3204 -11.966 0.000148553 1 
3539 1 -1.41008 16.7776 -13.2027 5.71211e-05 1 
3540 1 66.8665 17.0045 -11.0436 9.22224e-05 1 
3541 1 -2.34592 17.5036 -8.38301 0.000553918 1 
3542 1 -1.88323 14.9595 -9.62241 0.000214436 1 
3543 1 -0.949539 15.464 -6.96217 0.00339981 1 
3544 1 66.3875 15.1837 -7.47041 0.00359576 1 
3545 1 67.2963 15.6913 -4.81463 0.0385728 1 
3546 1 67.7702 13.1559 -6.02667 0.0573269 1 
3547 1 -1.39227 13.6814 -3.35687 1.41271 5 
3548 1 65.8395 13.3599 -3.8952 5.83277 5 
3549 1 66.7326 13.9118 -1.30183 8.47779 5 
3550 1 67.3327 11.3765 -2.55394 0.502882 1 
3551 1 65.2293 11.7105 -0.85205 7.91417 5 
3579 1 65.9313 16.5064 -13.7046 4.34196e-05 1 
3580 1 66.3973 13.9612 -14.938 3.0628e-05 1 
3581 1 67.3305 14.459 -12.2797 8.11759e-05 1 
3582 1 64.5235 14.1885 -12.7813 9.71613e-05 1 
3583 1 65.4548 14.6859 -10.1244 0.000332469 1 
3584 1 65.9226 12.138 -11.3579 0.000322949 1 
3585 1 66.8551 12.6376 -8.70496 0.00364183 1 
3586 1 64.0371 12.365 -9.21274 0.00198327 1 
3587 1 64.9658 12.8531 -6.57945 0.0220587 1 
3588 1 65.4416 10.3036 -7.80831 0.0125504 1 
3589 1 66.3847 10.7972 -5.19096 0.110174 1 
3590 1 63.4963 10.5337 -5.73132 0.148576 1 
3591 1 64.3901 11.046 -3.2383 6.06407 5 
3592 1 64.8874 8.49883 -4.31573 0.296174 1 
3593 1 65.856 9.11069 -1.86774 1.51206 1 
3594 1 63.0063 8.84703 -2.03195 1.22546 5 
3595 1 64.4874 7.05474 -0.594971 5.26427 5 
3645 1 64.9915 11.6418 -14.0121 9.10997e-05 1 
3646 1 62.1856 11.3722 -14.5133 0.000108888 1 
3647 1 63.1127 11.8691 -11.8586 0.000424281 1 
3648 1 63.5852 9.32204 -13.0835 0.000362565 1 
3649 1 64.5118 9.8146 -10.4372 0.00194705 1 
3650 1 61.7007 9.54915 -10.9278 0.00237469 1 
3651 1 62.6062 10.0441 -8.29948 0.020048 1 
3652 1 63.1001 7.49546 -9.49671 0.00557706 1 
3653 1 64.0096 7.98346 -6.88303 0.0405839 1 
3654 1 61.2083 7.7293 -7.30788 0.0120861 1 
3655 1 62.1136 8.23309 -4.67284 0.0463431 1 
3656 1 62.6235 5.67809 -5.85033 0.0173463 1 
3657 1 63.5377 6.20701 -3.19693 0.186745 1 
3658 1 60.7556 5.95307 -3.62778 0.0936198 1 
3659 1 61.7238 6.50248 -1.00988 7.1277 5 
3660 1 62.2264 3.8414 -2.11014 4.62748 5 
3732 1 60.7804 9.0537 -13.5809 0.000327478 1 
3733 1 61.2544 6.51096 -14.806 0.000129857 1 
3734 1 62.1814 7.00507 -12.1453 0.000769473 1 
3735 1 59.381 6.739 -12.6401 0.000408928 1 
3736 1 60.3019 7.23461 -9.97174 0.00211086 1 
3737 1 60.7873 4.69461 -11.1986 0.000794426 1 
3738 1 61.7115 5.18774 -8.52445 0.0033309 1 
3739 1 58.9186 4.93146 -9.0189 0.00378992 1 
3740 1 59.8463 5.43206 -6.32156 0.017314 1 
3741 1 60.3417 2.88628 -7.57608 0.00900229 1 
3742 1 61.2885 3.36507 -4.8626 0.0557818 1 
3743 1 58.4788 3.12894 -5.44153 0.0596865 1 
3744 1 59.4841 3.59791 -2.7218 6.74604 5 
3745 1 59.9143 1.06136 -4.0029 5.70006 5 
3746 1 61.9137 1.30187 -0.534988 10.7645 5 
3747 1 57.9084 1.38845 -2.09136 6.70273 5 
3837 1 59.8569 4.19802 -13.8701 0.000206143 1 
3838 1 57.0545 3.92872 -14.3769 0.000223478 1 
3839 1 57.9883 4.42987 -11.7025 0.000895317 1 
3840 1 58.4627 1.88682 -12.9422 0.000453674 1 
3841 1 59.4017 2.38785 -10.2652 0.00198091 1 
3842 1 56.5945 2.12026 -10.7879 0.00078137 1 
3843 1 57.5336 2.62605 -8.11643 0.00598988 1 
3844 1 58.0102 0.0770142 -9.36106 0.00163051 1 
3845 1 58.9537 0.579242 -6.68322 0.0156468 1 
3846 1 56.133 0.312442 -7.23757 0.0113227 1 
3847 1 57.024 0.819611 -4.61549 0.150941 1 
3949 1 55.6564 1.61551 -13.4569 0.00019463 1 
4957 1 -0.935229 28.5326 -14.0423 0.000128263 1 
4958 1 -1.39225 26.7088 -10.4413 0.000360758 1 
4959 1 -1.82939 24.8919 -6.83151 0.00322819 1 
4960 1 -0.847972 25.3962 -4.16285 0.103799 1 
4961 1 -2.26605 23.1231 -3.2929 6.17713 5 
4962 1 -0.813938 21.2618 -1.85978 5.06689 5 
4974 1 -2.33655 26.2161 -13.1029 0.000100089 1 
4975 1 -1.87076 23.6783 -14.3289 6.42921e-05 1 
4976 1 -0.928691 24.1727 -11.6645 0.000217644 1 
4977 1 -3.7384 23.9023 -12.1657 0.000153202 1 
4978 1 -2.79072 24.3954 -9.502 0.000758704 1 
4979 1 -2.3328 21.8595 -10.7304 0.000346454 1 
4980 1 -1.37962 22.3568 -8.06349 0.00179947 1 
4981 1 65.9459 22.0829 -8.56784 0.00206503 1 
4982 1 -3.23672 22.5814 -5.91895 0.0112111 1 
4983 1 -2.79621 20.0451 -7.142 0.00326259 1 
4984 1 -1.86305 20.5603 -4.4587 0.113428 1 
4985 1 65.4943 20.2568 -4.97989 0.0427331 1 
4986 1 66.4021 20.8499 -2.23668 2.3599 5 
4987 1 66.8405 18.2571 -3.5505 0.224796 1 
4988 1 -2.14571 18.9945 -1.01979 6.56778 5 
4989 1 65.1452 18.3797 -1.27305 10.5829 5 
5021 1 65.4701 23.4084 -14.8298 4.4727e-05 1 
5023 1 -3.2744 21.364 -13.3963 7.93595e-05 1 
5024 1 64.0667 21.0948 -13.8984 6.28635e-05 1 
5025 1 65.0049 21.5898 -11.2328 0.000172881 1 
5026 1 65.4676 19.0499 -12.4685 9.61042e-05 1 
5027 1 66.4064 19.5465 -9.80449 0.000307695 1 
5028 1 63.5976 19.2779 -10.3038 0.000375248 1 
5029 1 64.5372 19.7703 -7.6376 0.0018019 1 
5030 1 64.9932 17.2313 -8.88293 0.000595061 1 
5031 1 65.9226 17.7274 -6.21716 0.0086332 1 
5032 1 63.1271 17.4567 -6.71055 0.00739045 1 
5033 1 64.0678 17.9247 -4.01147 0.116668 1 
5034 1 64.5137 15.3964 -5.32681 0.0467092 1 
5035 1 65.3427 15.887 -2.60296 6.06742 5 
5036 1 62.6928 15.5658 -3.22329 5.86029 5 
5037 1 63.5863 14.101 -0.768261 10.2889 5 
5092 1 62.6617 18.7813 -12.9707 0.0001109 1 
5093 1 63.1256 16.2367 -14.2071 5.10409e-05 1 
5094 1 64.059 16.7348 -11.545 0.000154395 1 
5095 1 61.2539 16.4669 -12.0477 0.000193153 1 
5096 1 62.1872 16.9664 -9.38205 0.000928885 1 
5097 1 62.646 14.4185 -10.626 0.00043712 1 
5098 1 63.5721 14.9145 -7.97018 0.00277292 1 
5099 1 60.7635 14.6517 -8.47128 0.00199756 1 
5100 1 61.6717 15.1508 -5.8182 0.036705 1 
5101 1 62.1353 12.6056 -7.06416 0.0124439 1 
5102 1 63.0473 13.092 -4.43905 7.06039 5 
5103 1 60.2279 12.8461 -4.9003 0.0481757 1 
5104 1 61.1402 13.3775 -2.2833 5.57439 5 
5105 1 61.5817 10.8055 -3.51694 0.231978 1 
5106 1 62.4877 11.4487 -1.0323 10.0095 5 
5107 1 59.6239 11.2876 -1.14512 3.29821 5 
5176 1 60.3214 15.9668 -14.7113 5.75702e-05 1 
5178 1 61.7176 13.9192 -13.2835 0.000119186 1 
5179 1 58.9146 13.648 -13.787 0.000135346 1 
5180 1 59.8414 14.1489 -11.1275 0.000516267 1 
5181 1 60.308 11.5998 -12.3564 0.000465078 1 
5182 1 61.2255 12.1003 -9.70441 0.00227612 1 
5183 1 58.4301 11.8269 -10.1945 0.00132794 1 
5184 1 59.3373 12.3292 -7.53774 0.00723844 1 
5185 1 59.8133 9.77812 -8.75449 0.00592338 1 
5186 1 60.7008 10.2798 -6.1078 0.0411797 1 
5187 1 57.9422 10.0118 -6.54744 0.0146092 1 
5188 1 58.826 10.558 -3.82956 0.170213 1 
5189 1 59.3408 7.99154 -5.04805 0.068276 1 
5190 1 60.2833 8.58203 -2.34329 1.34356 5 
5191 1 57.5106 8.20997 -2.83238 0.405728 1 
5192 1 58.961 6.13538 -1.32302 5.50786 5 
5272 1 57.5091 11.3277 -12.8561 0.000274083 1 
5273 1 57.9798 8.78374 -14.0807 0.000162902 1 
5274 1 58.9034 9.28101 -11.4158 0.000910699 1 
5275 1 56.1089 9.01052 -11.9162 0.00042359 1 
5276 1 57.032 9.50926 -9.23927 0.00215748 1 
5277 1 57.5104 6.97056 -10.4651 0.00160325 1 
5278 1 58.4326 7.47192 -7.77175 0.00909128 1 
5279 1 55.6407 7.20456 -8.29243 0.00333492 1 
5280 1 56.568 7.71067 -5.58705 0.0192792 1 
5281 1 57.0488 5.1743 -6.84087 0.0213876 1 
5282 1 57.9876 5.6735 -4.11924 0.150545 1 
5283 1 55.1426 5.44225 -4.70379 0.0619709 1 
5284 1 56.074 6.05287 -1.99487 6.29759 5 
5285 1 56.5207 3.40064 -3.45221 0.57135 1 
5286 1 57.4141 3.91652 -0.964741 10.1333 5 
5287 1 54.7216 3.73341 -1.26791 5.65934 5 
5375 1 55.1793 8.51181 -14.5861 0.000108394 1 
5377 1 56.582 6.4701 -13.1434 0.000351516 1 
5378 1 53.7793 6.1973 -13.6549 0.000211294 1 
5379 1 54.7118 6.69963 -10.9797 0.000817097 1 
5380 1 55.1847 4.15933 -12.2168 0.000561013 1 
5381 1 56.118 4.66583 -9.53728 0.00305642 1 
5382 1 53.3093 4.3905 -10.0615 0.000980401 1 
5383 1 54.2321 4.9066 -7.38687 0.00762696 1 
5384 1 54.7139 2.35608 -8.64481 0.00414361 1 
5385 1 55.6262 2.86985 -6.01086 0.0556731 1 
5386 1 52.8311 2.5898 -6.47293 0.0112066 1 
5387 1 53.7486 3.08473 -3.81663 0.07687 1 
5388 1 54.2646 0.554512 -5.0671 0.0283294 1 
5389 1 55.1695 1.05395 -2.35156 2.62243 5 
5390 1 52.4245 0.793157 -2.86498 5.29828 5 
5484 1 54.2494 3.65625 -14.8878 0.000137893 1 
5486 1 52.3774 3.8838 -12.7317 0.000228129 1 
5487 1 52.8478 1.34124 -13.969 0.000111018 1 
5488 1 53.784 1.84615 -11.3053 0.000418516 1 
5489 1 50.9752 1.56897 -11.813 0.000380847 1 
5490 1 51.9094 2.07605 -9.14685 0.00160394 1 
5491 1 53.3297 0.040354 -7.7387 0.00249651 1 
5492 1 51.4814 0.279205 -5.58765 0.0293129 1 
5596 1 50.039 1.06613 -14.4768 0.000113546 1 
6574 1 -1.87793 33.6138 -11.6131 0.000745323 1 
6575 1 -0.945163 34.1088 -8.98163 0.0059754 1 
6576 1 -2.34013 31.7798 -8.02437 0.00242578 1 
6577 1 -1.4056 32.289 -5.37414 0.0564499 1 
6578 1 -0.913235 29.7432 -6.5642 0.013723 1 
6579 1 -2.74069 29.9362 -4.39989 0.142809 1 
6580 1 -2.26094 32.603 -0.609102 7.02419 5 
6581 1 -1.2675 27.8643 -2.89731 0.548711 5 
6597 1 -2.81316 33.1222 -14.2577 0.000169339 1 
6599 1 -1.40502 31.0718 -12.8258 0.000322403 1 
6600 1 -4.215 30.8013 -13.3208 0.00013867 1 
6601 1 -3.27843 31.2902 -10.6705 0.000399848 1 
6602 1 -2.80527 28.7529 -11.883 0.000173548 1 
6603 1 -1.86192 29.2442 -9.22642 0.000779964 1 
6604 1 65.4729 28.9732 -9.72156 0.000515216 1 
6605 1 -3.7242 29.4633 -7.06411 0.00550965 1 
6606 1 -3.25298 26.9305 -8.2814 0.00124499 1 
6607 1 -2.28032 27.4246 -5.62244 0.0208166 1 
6608 1 65.0443 27.1567 -6.12248 0.034428 1 
6609 1 -4.06039 27.6654 -3.4385 0.672909 5 
6610 1 -3.68978 25.1253 -4.68865 0.0474074 1 
6611 1 -2.61052 25.6702 -1.98076 7.07599 5 
6612 1 64.552 25.4173 -2.6443 1.28173 5 
6613 1 65.57 26.095 -0.210412 9.58925 5 
6614 1 66.0482 23.5255 -1.31502 6.17488 5 
6650 1 -3.74411 28.2621 -14.5402 6.71964e-05 1 
6652 1 64.5327 28.4843 -12.3794 0.000119082 1 
6653 1 65.0027 25.947 -13.6021 7.06498e-05 1 
6654 1 -4.20466 26.4384 -10.9405 0.000266146 1 
6655 1 63.1321 26.1712 -11.4385 0.000132703 1 
6656 1 64.0733 26.6612 -8.77753 0.00241325 1 
6657 1 64.5401 24.1262 -10.0026 0.000629346 1 
6658 1 65.4952 24.6168 -7.3505 0.0048488 1 
6659 1 62.6627 24.3447 -7.83668 0.0123451 1 
6660 1 63.624 24.827 -5.23359 0.100488 1 
6661 1 64.0645 22.2962 -6.39687 0.0292978 1 
6662 1 65.0387 22.7931 -3.81185 0.17711 1 
6663 1 62.1846 22.5003 -4.1505 0.381504 1 
6664 1 63.2445 23.0512 -1.58085 9.28102 5 
6665 1 63.6766 20.4765 -2.84399 5.35218 5 
6666 1 63.2297 20.1686 -0.171623 11.3835 5 
6715 1 62.1952 25.6795 -14.1017 6.0281e-05 1 
6717 1 63.6008 23.6341 -12.6664 8.196e-05 1 
6718 1 60.7949 23.3676 -13.1669 0.00016368 1 
6719 1 61.7313 23.8599 -10.4993 0.000822271 1 
6720 1 62.1983 21.3228 -11.7332 0.000268166 1 
6721 1 63.1357 21.8148 -9.0638 0.00149967 1 
6722 1 60.3349 21.5541 -9.55962 0.00141737 1 
6723 1 61.273 22.0427 -6.8696 0.00898481 1 
6724 1 61.7308 19.5083 -8.12951 0.00196823 1 
6725 1 62.6755 19.9859 -5.45528 0.0175859 1 
6726 1 59.8721 19.7428 -5.93969 0.0130829 1 
6727 1 60.8392 20.2033 -3.22646 5.11672 5 
6728 1 61.2813 17.6837 -4.54658 0.0465281 1 
6729 1 62.2721 18.1642 -1.79272 9.82155 5 
6730 1 59.5202 17.928 -2.33778 5.7277 5 
6731 1 60.9893 15.7841 -1.14024 9.09189 5 
6789 1 61.2615 20.8266 -14.4011 8.20702e-05 1 
6790 1 58.4578 20.5579 -14.9064 0.000108827 1 
6791 1 59.3954 21.0573 -12.2363 0.000361965 1 
6792 1 59.8579 18.5129 -13.4754 0.000137842 1 
6793 1 60.7939 19.0125 -10.8058 0.000444733 1 
6794 1 57.9923 18.7438 -11.3157 0.000436702 1 
6795 1 58.932 19.2454 -8.63839 0.0017781 1 
6796 1 59.3832 16.6987 -9.88852 0.000650846 1 
6797 1 60.3186 17.2025 -7.21927 0.00524817 1 
6798 1 57.5187 16.9293 -7.72964 0.00258543 1 
6799 1 58.471 17.4374 -5.05381 0.0410039 1 
6800 1 58.8829 14.8851 -6.30796 0.0110436 1 
6801 1 59.7715 15.4181 -3.63082 0.410318 1 
6802 1 57.0305 15.1411 -4.10734 0.205272 1 
6803 1 57.7794 15.9097 -1.19828 8.6457 5 
6804 1 58.3462 13.1767 -2.67804 0.479114 1 
6869 1 57.0549 18.2418 -13.9845 0.000127504 1 
6871 1 58.4513 16.196 -12.5545 0.000187172 1 
6872 1 55.6498 15.9218 -13.0646 0.000158856 1 
6873 1 56.5841 16.4239 -10.4 0.000558731 1 
6874 1 57.0428 13.8747 -11.6307 0.000381605 1 
6875 1 57.967 14.3775 -8.96892 0.00186161 1 
6876 1 55.1759 14.0988 -9.47432 0.000937602 1 
6877 1 56.11 14.6017 -6.80226 0.0100253 1 
6878 1 56.5592 12.0517 -8.02468 0.0036811 1 
6879 1 57.4591 12.558 -5.34314 0.0344822 1 
6880 1 54.6921 12.2697 -5.86794 0.0103532 1 
6881 1 55.5958 12.7468 -3.17195 0.263155 1 
6882 1 56.075 10.229 -4.36439 0.045367 1 
6883 1 56.9627 10.6669 -1.64522 1.20236 5 
6884 1 54.2507 10.5184 -2.0734 1.29723 1 
6958 1 56.1133 13.3746 -14.2929 0.000107049 1 
6959 1 53.311 13.1004 -14.8015 9.69182e-05 1 
6960 1 54.2446 13.5992 -12.1397 0.000274086 1 
6961 1 54.7103 11.0542 -13.3621 0.000174342 1 
6962 1 55.6383 11.5527 -10.6953 0.000621226 1 
6963 1 52.8407 11.2777 -11.2088 0.000395972 1 
6964 1 53.7681 11.7765 -8.53969 0.000955654 1 
6965 1 54.2388 9.23734 -9.7537 0.000652573 1 
6966 1 55.1627 9.73789 -7.06943 0.00261509 1 
6967 1 52.3663 9.46449 -7.59616 0.00694512 1 
6968 1 53.2863 9.97769 -4.90262 0.0875857 1 
6969 1 53.7649 7.44631 -6.1216 0.0251236 1 
6970 1 54.6755 8.00091 -3.38414 0.44292 1 
6971 1 51.8411 7.66676 -4.03408 0.201269 1 
6972 1 52.6792 8.29586 -1.43821 2.02207 1 
6973 1 53.2332 5.67168 -2.59058 0.274925 1 
7055 1 51.9079 10.7797 -13.873 0.000146999 1 
7057 1 53.3092 8.73696 -12.428 0.000238045 1 
7058 1 50.5049 8.46096 -12.9418 0.000208502 1 
7059 1 51.4376 8.96027 -10.2736 0.000784143 1 
7060 1 51.9075 6.4232 -11.4975 0.000465883 1 
7061 1 52.8381 6.92989 -8.81889 0.00260838 1 
7062 1 50.0327 6.64322 -9.34306 0.00157497 1 
7063 1 50.9528 7.14557 -6.67465 0.0185674 1 
7064 1 51.4315 4.61446 -7.89968 0.00283873 1 
7065 1 52.345 5.12059 -5.22376 0.0303755 1 
7066 1 49.5667 4.83724 -5.706 0.0122201 1 
7067 1 50.48 5.38017 -2.98741 0.183547 1 
7068 1 50.959 2.82052 -4.24456 0.117268 1 
7069 1 51.954 3.29266 -1.56148 6.30445 5 
7070 1 49.1831 2.94361 -1.96477 6.36086 5 
7160 1 50.9734 5.92207 -14.1668 0.000127428 1 
7161 1 48.1659 5.64668 -14.6754 9.73064e-05 1 
7162 1 49.1008 6.14388 -12.0108 0.000317443 1 
7163 1 49.5698 3.60678 -13.2408 0.000181702 1 
7164 1 50.5036 4.10843 -10.5729 0.000601657 1 
7165 1 47.6981 3.82908 -11.0785 0.000431923 1 
7166 1 48.6344 4.3284 -8.40247 0.00159207 1 
7167 1 49.1034 1.7948 -9.64863 0.00202073 1 
7168 1 50.0421 2.3039 -6.96908 0.0123736 1 
7169 1 47.2328 2.01268 -7.47555 0.0114596 1 
7170 1 48.1906 2.50955 -4.78874 0.101699 1 
7171 1 41.1765 46.9584 -6.10207 0.0219549 1 
7172 1 49.6631 0.452154 -3.44787 6.66687 5 
7173 1 46.746 0.180825 -4.04931 0.353538 1 
7174 1 47.6804 0.699751 -1.56351 10.7282 5 
7273 1 46.7618 3.33136 -13.746 0.00016582 1 
7274 1 47.2302 0.791629 -14.9817 0.000113301 1 
7275 1 48.1668 1.29207 -12.3182 0.000393425 1 
7276 1 45.3575 1.01672 -12.8215 0.000323609 1 
7277 1 46.2951 1.51523 -10.1555 0.00132033 1 
8329 1 -0.925655 39.7304 -3.86465 5.15408 5 
8330 1 -1.09488 38.4352 -0.505621 9.34702 5 
8334 1 -0.94324 42.8608 -13.6486 9.4539e-05 1 
8335 1 -2.34783 40.5379 -12.7307 0.000174803 1 
8336 1 -1.4053 41.0335 -10.0833 0.00122508 1 
8337 1 -0.941716 38.486 -11.3153 0.000272243 1 
8338 1 -2.81738 38.7077 -9.17273 0.00121926 1 
8339 1 -1.8636 39.2079 -6.53345 0.0114094 1 
8340 1 -1.41766 36.6616 -7.77253 0.00971135 1 
8341 1 -3.2965 36.8698 -5.64094 0.0443837 1 
8342 1 -2.30875 37.4963 -3.07584 0.952645 5 
8343 1 -1.90585 34.8666 -4.18992 0.214228 1 
8344 1 -1.13745 35.6639 -1.47381 6.72853 5 
8345 1 -3.76272 34.9107 -2.09324 1.82385 5 
8361 1 -1.87967 37.9909 -13.9617 9.06662e-05 1 
8362 1 -4.68943 37.7195 -14.4575 0.000114977 1 
8363 1 -3.75558 38.2133 -11.8116 0.000276661 1 
8364 1 -3.28522 35.6667 -13.037 0.000247409 1 
8365 1 -2.35222 36.1602 -10.3976 0.00128583 1 
8366 1 -5.16301 35.8871 -10.8841 0.000373737 1 
8367 1 -4.23603 36.375 -8.24743 0.00389416 1 
8368 1 -3.75529 33.8308 -9.46251 0.000962925 1 
8369 1 -2.82126 34.3205 -6.83021 0.0086551 1 
8370 1 64.5185 34.0449 -7.30935 0.00497586 1 
8371 1 -4.68407 34.5129 -4.68993 0.0535596 1 
8372 1 -4.20371 31.9829 -5.8679 0.020769 1 
8373 1 -3.22512 32.4354 -3.22795 0.483917 1 
8374 1 64.1571 32.1967 -3.64415 0.823652 1 
8375 1 -5.00759 32.8197 -0.769569 5.88829 5 
8376 1 -4.39371 30.2231 -2.03262 2.96312 5 
8377 1 63.5264 30.6076 -0.531524 7.98818 5 
8405 1 64.0538 35.3968 -13.529 0.000144905 1 
8406 1 64.5261 32.8524 -14.7528 0.000105437 1 
8407 1 -4.68846 33.3426 -12.1041 0.000276827 1 
8408 1 62.6509 33.0752 -12.596 0.000239478 1 
8409 1 63.5837 33.5621 -9.94962 0.000766572 1 
8410 1 64.0594 31.0216 -11.1631 0.000262767 1 
8411 1 64.9963 31.5072 -8.51281 0.00127171 1 
8412 1 62.1835 31.2404 -9.00823 0.00579013 1 
8413 1 63.1302 31.7193 -6.34794 0.0796414 1 
8414 1 63.6079 29.1942 -7.5531 0.0224517 1 
8415 1 64.589 29.6795 -4.86194 0.30144 1 
8416 1 61.67 29.4162 -5.47979 0.196834 1 
8417 1 62.5653 29.9884 -2.96653 1.36859 1 
8418 1 63.1193 27.3909 -4.08046 0.367033 1 
8419 1 64.1269 28.0767 -1.6425 5.0502 5 
8420 1 61.3224 27.7698 -1.81312 4.33866 5 
8456 1 63.1244 30.5333 -13.8162 0.000109436 1 
8457 1 60.3172 30.2667 -14.3128 0.000119075 1 
8458 1 61.2485 30.7563 -11.6577 0.000543608 1 
8459 1 61.7238 28.2178 -12.8764 0.000133518 1 
8460 1 62.6602 28.7064 -10.2168 0.00116051 1 
8461 1 59.8466 28.4423 -10.7147 0.00195771 1 
8462 1 60.7682 28.9254 -8.07261 0.0208619 1 
8463 1 61.2566 26.3934 -9.27468 0.00429648 1 
8464 1 62.1797 26.8744 -6.63464 0.0531056 1 
8465 1 59.3885 26.6254 -7.07215 0.0110925 1 
8466 1 60.2983 27.1216 -4.38209 0.139521 1 
8467 1 60.7928 24.5657 -5.60914 0.0858073 1 
8468 1 61.8193 25.1086 -3.0618 2.99278 5 
8469 1 58.9962 24.7821 -3.28928 3.22481 5 
8470 1 60.9728 24.6203 -0.605668 14.16 5 
8471 1 60.1338 22.4113 -1.72439 9.24404 5 
8515 1 58.9172 27.9526 -13.3742 0.000249723 1 
8516 1 59.3898 25.4127 -14.6023 9.44971e-05 1 
8517 1 60.3243 25.9059 -11.9364 0.000469426 1 
8518 1 57.5221 25.6429 -12.4348 0.000397689 1 
8519 1 58.4568 26.1373 -9.7584 0.00163675 1 
8520 1 58.9295 23.5989 -10.9958 0.000801311 1 
8521 1 59.869 24.0915 -8.31393 0.00404072 1 
8522 1 57.0729 23.8328 -8.82173 0.00657282 1 
8523 1 58.0307 24.3236 -6.12172 0.0540142 1 
8524 1 58.4879 21.7848 -7.38399 0.0172403 1 
8525 1 59.438 22.262 -4.6482 0.304919 1 
8526 1 56.618 22.0019 -5.30269 0.0978158 1 
8527 1 57.5584 22.471 -2.64795 7.42892 5 
8528 1 57.9992 19.9618 -3.72653 4.93891 5 
8529 1 55.8679 20.3414 -1.56818 8.36482 5 
8530 1 57.7558 18.6968 -0.481304 3.89129 5 
8583 1 57.9918 23.1014 -13.6702 0.000226262 1 
8584 1 55.188 22.8321 -14.1799 0.000239774 1 
8585 1 56.1287 23.3334 -11.5072 0.00117504 1 
8586 1 56.5929 20.7881 -12.7478 0.000390258 1 
8587 1 57.5355 21.2895 -10.0725 0.00205203 1 
8588 1 54.7287 21.0173 -10.6005 0.000521671 1 
8589 1 55.6695 21.5165 -7.93756 0.00583065 1 
8590 1 56.1323 18.9721 -9.16154 0.00173318 1 
8591 1 57.0826 19.4706 -6.47404 0.0216544 1 
8592 1 54.2683 19.198 -7.02813 0.00322021 1 
8593 1 55.2055 19.7011 -4.36885 0.154827 1 
8594 1 55.6577 17.152 -5.58678 0.00942536 1 
8595 1 56.625 17.715 -2.94045 0.784225 5 
8596 1 53.809 17.3619 -3.43515 0.148677 1 
8597 1 54.9196 17.7361 -0.779866 10.1525 5 
8598 1 55.1647 15.2797 -2.06057 6.14981 5 
8658 1 53.7868 20.5154 -13.264 0.00013439 1 
8659 1 54.2506 17.9683 -14.4963 8.88207e-05 1 
8660 1 55.1899 18.4697 -11.8324 0.000307374 1 
8661 1 52.3833 18.195 -12.3494 0.000201927 1 
8662 1 53.3258 18.6962 -9.69081 0.000603226 1 
8663 1 53.7833 16.1467 -10.9165 0.000320458 1 
8664 1 54.7213 16.6471 -8.25399 0.00081102 1 
8665 1 51.9166 16.3719 -8.77736 0.000410116 1 
8666 1 52.8617 16.875 -6.12076 0.00683787 1 
8667 1 53.3077 14.3209 -7.3346 0.00255718 1 
8668 1 54.2527 14.8108 -4.69562 0.0559166 1 
8669 1 51.4432 14.5451 -5.1962 0.0797895 1 
8670 1 52.4227 15.102 -2.57568 2.03259 5 
8671 1 52.8576 12.4945 -3.68939 0.495212 1 
8672 1 50.8305 12.8446 -1.88916 6.71267 5 
8673 1 52.1313 10.9085 -0.414918 7.68002 5 
8742 1 52.8462 15.6468 -13.5766 0.000137615 1 
8743 1 50.0394 15.3724 -14.0875 0.000129637 1 
8744 1 50.9778 15.8715 -11.433 0.000316759 1 
8745 1 51.4416 13.3238 -12.6533 0.000264446 1 
8746 1 52.3763 13.8223 -9.99447 0.000661035 1 
8747 1 49.5707 13.546 -10.5131 0.000905945 1 
8748 1 50.5063 14.0457 -7.86098 0.00625961 1 
8749 1 50.9693 11.4995 -9.06279 0.00252175 1 
8750 1 51.8957 12.0044 -6.38909 0.0301348 1 
8751 1 49.0728 11.7204 -6.94771 0.0273922 1 
8752 1 49.934 12.2423 -4.35258 0.354162 1 
8753 1 50.4527 9.68448 -5.49384 0.0932959 1 
8754 1 51.308 10.2344 -2.91374 0.94058 1 
8755 1 48.5512 9.99544 -3.22849 0.598204 1 
8756 1 49.2778 10.8885 -0.467976 6.17602 5 
8757 1 49.9396 8.04727 -1.71763 1.27348 1 
8833 1 48.6344 13.0488 -13.1647 0.000263764 1 
8834 1 49.1019 10.5049 -14.3833 0.000136908 1 
8835 1 50.0371 11.0012 -11.7247 0.000448519 1 
8836 1 47.2292 10.7248 -12.2359 0.000427864 1 
8837 1 48.1608 11.2194 -9.58602 0.00249434 1 
8838 1 48.6315 8.67983 -10.7916 0.000798976 1 
8839 1 49.5553 9.17788 -8.13121 0.00713581 1 
8840 1 46.7622 8.89358 -8.63417 0.00299789 1 
8841 1 47.6786 9.40017 -5.94591 0.0389382 1 
8842 1 48.1678 6.86122 -7.1702 0.0067729 1 
8843 1 49.0815 7.3934 -4.45823 0.0965244 1 
8844 1 46.3197 7.05479 -5.02292 0.0699135 1 
8845 1 47.2784 7.48691 -2.30374 1.00585 1 
8846 1 47.748 5.02225 -3.51676 0.150721 1 
8847 1 48.7208 5.37842 -0.768088 4.32298 5 
8931 1 46.2939 10.2314 -14.8897 0.000118123 1 
8933 1 47.6976 8.18492 -13.4518 0.000178675 1 
8934 1 44.8903 7.91165 -13.9563 0.000114044 1 
8935 1 45.8258 8.40266 -11.2967 0.000331966 1 
8936 1 46.2938 5.86751 -12.5164 0.000194877 1 
8937 1 47.2304 6.36154 -9.84882 0.000647125 1 
8938 1 44.4218 6.08475 -10.3554 0.000573996 1 
8939 1 45.3625 6.57193 -7.69072 0.00342032 1 
8940 1 45.8287 4.04583 -8.91344 0.00121564 1 
8941 1 46.7763 4.53691 -6.23447 0.00983165 1 
8942 1 43.9633 4.26175 -6.74719 0.0108989 1 
8943 1 44.9408 4.78961 -4.06698 0.188524 1 
8944 1 45.3389 2.23373 -5.31406 0.0663679 1 
8945 1 46.3323 2.81805 -2.67224 6.69269 5 
8946 1 43.4368 2.43296 -3.1665 1.47264 5 
8947 1 44.4836 3.14033 -0.718356 9.22647 5 
8948 1 44.9665 0.517887 -1.89233 5.7124 5 
9041 1 43.4865 5.5948 -13.0204 0.000159994 1 
9042 1 43.9542 3.05802 -14.2497 0.000134181 1 
9043 1 44.8891 3.55292 -11.5827 0.000452949 1 
9044 1 42.0824 3.28109 -12.0852 0.000299893 1 
9045 1 43.0145 3.77249 -9.41326 0.00163926 1 
9046 1 43.4834 1.23956 -10.6567 0.00102992 1 
9047 1 44.4201 1.73253 -7.99397 0.00466397 1 
9048 1 41.6075 1.45754 -8.47917 0.00878351 1 
9049 1 42.5498 1.92331 -5.82897 0.0385141 1 
9050 1 36.467 46.8395 -4.40075 0.139653 1 
9051 1 34.5937 46.9753 -2.08489 11.1558 5 
9151 1 41.1476 2.78646 -14.752 9.49881e-05 1 
9153 1 42.55 0.743366 -13.3233 0.000212148 1 
9154 1 39.744 0.471996 -13.8239 0.000181293 1 
9155 1 40.6798 0.967685 -11.156 0.000873571 1 
10176 1 -1.36801 46.573 -4.89608 0.0985238 1 
10177 1 -0.470195 44.3106 -0.670841 10.1229 5 
10178 1 -1.41034 45.4055 -12.4067 0.000198948 1 
10179 1 -3.27774 45.6293 -10.2425 0.000921427 1 
10180 1 -2.33148 46.1227 -7.57447 0.0129335 1 
10181 1 -1.86964 43.5789 -8.83658 0.00246864 1 
10182 1 -0.895874 44.0647 -6.18799 0.0272062 1 
10183 1 -3.74242 43.8011 -6.68745 0.021865 1 
10184 1 -2.73678 44.2417 -4.06025 5.58346 5 
10185 1 -2.31128 41.7384 -5.35645 0.0930725 1 
10186 1 -1.22268 42.1919 -2.72749 9.14296 5 
10187 1 -4.15951 41.9865 -3.28051 0.550905 1 
10188 1 -3.01447 42.8162 -0.883444 4.10148 5 
10189 1 -2.9627 40.0388 -1.67577 8.06999 5 
10196 1 -4.21743 45.1329 -12.9043 0.000218211 1 
10197 1 -3.75148 42.588 -14.1459 9.91436e-05 1 
10198 1 -2.81375 43.0845 -11.4914 0.000292318 1 
10199 1 -5.62433 42.8125 -11.9875 0.000288261 1 
10200 1 -4.68563 43.3067 -9.33768 0.000936652 1 
10201 1 -4.22337 40.7598 -10.5804 0.00088041 1 
10202 1 -3.28257 41.2515 -7.95027 0.00881016 1 
10203 1 -6.10298 40.9779 -8.42295 0.00329964 1 
10204 1 -5.17211 41.4643 -5.80531 0.0398661 1 
10205 1 -4.69804 38.9189 -7.03147 0.00656628 1 
10206 1 -3.74021 39.4323 -4.428 0.110057 1 
10207 1 63.5622 39.1303 -4.87482 0.0923865 1 
10208 1 -5.59512 39.602 -2.39159 3.66294 5 
10209 1 -5.12167 37.0466 -3.47641 0.224117 1 
10210 1 -3.86839 37.3384 -0.900973 10.5438 5 
10211 1 63.1923 37.3833 -1.2208 7.5972 5 
10223 1 -6.55847 42.3165 -14.643 9.59697e-05 1 
10225 1 -5.15821 40.266 -13.2258 0.000198186 1 
10226 1 62.1835 39.9961 -13.7185 0.000156167 1 
10227 1 63.1147 40.4895 -11.066 0.000572834 1 
10228 1 63.5826 37.9429 -12.3008 0.000271505 1 
10229 1 -5.6338 38.4329 -9.65861 0.000926556 1 
10230 1 61.7069 38.1672 -10.1374 0.000736815 1 
10231 1 62.6381 38.6505 -7.49342 0.00460684 1 
10232 1 63.108 36.1068 -8.72444 0.00103727 1 
10233 1 64.0241 36.5886 -6.07044 0.0357735 1 
10234 1 61.2367 36.3192 -6.56192 0.0390914 1 
10235 1 62.1434 36.8062 -3.83437 5.20497 5 
10236 1 62.6652 34.2427 -5.15891 0.214777 1 
10237 1 63.6479 34.7834 -2.48918 1.27464 5 
10238 1 60.6445 34.5235 -3.24892 6.1849 5 
10239 1 61.5141 35.2475 -0.889998 9.8923 5 
10240 1 62.0853 32.5826 -1.91252 2.4574 5 
10262 1 62.6518 37.4497 -14.9517 9.2023e-05 1 
10264 1 60.7779 37.676 -12.7911 0.000188341 1 
10265 1 61.2475 35.1292 -14.0222 0.000113234 1 
10266 1 62.1772 35.6204 -11.3708 0.00026219 1 
10267 1 59.3708 35.3567 -11.8634 0.000388993 1 
10268 1 60.2978 35.8474 -9.21215 0.00327121 1 
10269 1 60.7711 33.2987 -10.4426 0.00210297 1 
10270 1 61.7052 33.7788 -7.80564 0.0211757 1 
10271 1 58.865 33.5315 -8.30753 0.0241843 1 
10272 1 59.7531 34.0187 -5.74153 0.191571 1 
10273 1 60.2638 31.4657 -6.90069 0.0636044 1 
10274 1 61.1296 31.9738 -4.34487 0.497589 1 
10275 1 58.3638 31.724 -4.68509 0.0434114 1 
10276 1 59.2466 32.3367 -2.04716 1.29178 5 
10277 1 59.7853 29.6979 -3.20853 0.203721 1 
10278 1 60.7218 30.5611 -0.598546 5.39526 5 
10279 1 57.9636 29.9974 -1.01844 7.14742 5 
10307 1 58.4433 34.8617 -14.5191 0.000101554 1 
10309 1 59.8432 32.8097 -13.0904 0.000309632 1 
10310 1 57.039 32.5432 -13.5863 0.000326057 1 
10311 1 57.9596 33.0378 -10.9342 0.00256841 1 
10312 1 58.4398 30.4929 -12.1518 0.000844343 1 
10313 1 59.3584 30.9813 -9.50639 0.0073884 1 
10314 1 56.5601 30.7234 -9.97854 0.00222451 1 
10315 1 57.464 31.2181 -7.3173 0.0130677 1 
10316 1 57.9694 28.6749 -8.53069 0.00383787 1 
10317 1 58.8783 29.1653 -5.85916 0.0201998 1 
10318 1 56.1032 28.9205 -6.328 0.0180725 1 
10319 1 57.0073 29.4446 -3.63677 0.0927707 1 
10320 1 57.5463 26.8528 -4.86533 0.0621736 1 
10321 1 58.476 27.3365 -2.11893 4.47547 5 
10322 1 55.7366 27.0894 -2.72473 6.70537 5 
10323 1 58.1309 24.7984 -0.537938 10.8466 5 
10361 1 57.5125 29.9998 -14.8108 0.000130096 1 
10363 1 55.6393 30.2283 -12.6449 0.000399685 1 
10364 1 56.1146 27.6869 -13.8733 0.000194805 1 
10365 1 57.0451 28.1828 -11.2031 0.000806492 1 
10366 1 54.2457 27.9191 -11.7056 0.000827217 1 
10367 1 55.1761 28.4203 -9.02356 0.00368812 1 
10368 1 55.6582 25.877 -10.2668 0.00200491 1 