ITEM: TIMESTEP
0
ITEM: NUMBER OF ATOMS
12950
ITEM: BOX BOUNDS xy xz yz pp pp ss
-3.1198319900000002e+00 9.4634903709000000e+01 -3.1198319900000002e+00
0.0000000000000000e+00 7.6351533372999995e+01 0.0000000000000000e+00
-1.0460098776745014e+02 1.1267024520340108e+02 0.0000000000000000e+00
ITEM: ATOMS id type x y z c_csym c_cna 
44541 1 44.4766 69.1829 -7.83345 0.0323445 1 
45805 2 4.964 26.4394 3.99514 0.0772183 1 
65664 2 -2.31116 56.736 2.59375 6.22173 5 
21570 1 45.7971 0.736741 -14.3747 0.000329252 1 
23416 1 -0.539222 19.4912 -13.317 0.00063999 1 
23525 1 -0.298245 14.9781 -11.2831 0.00164288 1 
24097 1 46.8371 6.36745 -14.156 0.000159408 1 
24177 1 41.4586 4.44116 -13.7222 0.000190786 1 
24178 1 44.1478 5.40531 -13.9408 0.000187832 1 
24179 1 43.6255 2.5888 -14.0509 0.00024773 1 
24180 1 46.317 3.55374 -14.2687 0.000220339 1 
24181 1 44.9209 3.71674 -11.7763 0.000759779 1 
24183 1 47.0954 1.86497 -12.1034 0.00103472 1 
24245 1 36.0864 2.51218 -13.2755 0.000283726 1 
24246 1 38.7709 3.47607 -13.4988 0.000194323 1 
24247 1 38.2513 0.661618 -13.6025 0.000272169 1 
24248 1 40.9363 1.6241 -13.8267 0.000242864 1 
24249 1 39.5367 1.78741 -11.3194 0.000796476 1 
24250 1 42.2264 2.75189 -11.5538 0.000691161 1 
24251 1 44.3988 0.898099 -11.8845 0.00099546 1 
24252 1 42.9926 1.0622 -9.39373 0.00286571 1 
24253 1 45.6968 2.03218 -9.62418 0.00415071 1 
24255 1 46.4827 0.3509 -7.49934 0.0229968 1 
24290 1 27.264 1.29969 -14.8234 6.75871e-05 1 
24293 1 30.7228 0.585587 -12.8494 0.000196678 1 
24294 1 33.4048 1.54933 -13.0581 0.000255995 1 
24295 1 36.8553 0.827201 -11.089 0.00101908 1 
24296 1 40.3003 0.0982004 -9.13955 0.00279054 1 
24318 1 24.5774 0.329635 -14.6152 7.88346e-05 1 
47190 2 19.5166 39.5875 3.97033 0.28056 1 
26015 1 -0.595065 20.7579 -8.51909 0.00774139 1 
26125 1 -0.366104 16.21 -6.47901 0.0263268 1 
26669 1 42.51 10.0729 -13.486 0.000266338 1 
26670 1 45.1923 11.0325 -13.7034 0.000363099 1 
26671 1 44.6704 8.21953 -13.8233 0.0001845 1 
26673 1 45.964 9.33729 -11.5343 0.000876657 1 
26741 1 37.1396 8.14543 -13.0681 0.000443867 1 
26742 1 39.8267 9.1114 -13.2768 0.000399425 1 
26743 1 39.2972 6.29345 -13.3931 0.000230595 1 
26744 1 41.9845 7.25809 -13.6085 0.000213078 1 
26745 1 40.5945 7.42378 -11.1078 0.0009162 1 
26746 1 43.2806 8.3832 -11.3163 0.000565549 1 
26747 1 42.7534 5.56958 -11.4424 0.00063881 1 
26748 1 45.443 6.52863 -11.656 0.000470179 1 
26749 1 44.0501 6.69537 -9.15304 0.00187141 1 
26750 1 46.7359 7.64135 -9.36373 0.00281807 1 
26751 1 46.2194 4.84305 -9.49242 0.00199942 1 
26801 1 28.3076 6.92534 -14.5978 0.000160335 1 
26802 1 30.9918 7.89352 -14.8143 0.000170206 1 
26803 1 30.4694 5.07956 -14.92 0.000105799 1 
26805 1 31.7631 6.20743 -12.6292 0.000457802 1 
26806 1 34.4502 7.17597 -12.8515 0.000360427 1 
26807 1 33.9246 4.36061 -12.9505 0.000303354 1 
26808 1 36.6095 5.32682 -13.1728 0.000221298 1 
26809 1 35.2153 5.48792 -10.665 0.00104466 1 
26810 1 37.9043 6.45751 -10.8937 0.000915561 1 
26811 1 37.3736 3.63903 -10.9898 0.0008376 1 
26812 1 40.0618 4.60475 -11.2212 0.000623506 1 
26813 1 38.6576 4.76834 -8.71863 0.00274071 1 
26814 1 41.3554 5.73547 -8.94748 0.00269817 1 
26815 1 40.8196 2.91601 -9.05245 0.00200214 1 
26816 1 43.5204 3.88354 -9.28625 0.00270269 1 
26817 1 42.1089 4.04761 -6.80028 0.00829424 1 
26818 1 44.8236 5.01329 -7.00437 0.0069952 1 
26819 1 44.2877 2.20259 -7.15289 0.0158025 1 
26820 1 47.005 3.16861 -7.34377 0.00708954 1 
26821 1 45.6096 3.33472 -4.88518 0.0234684 1 
26861 1 22.9434 4.98904 -14.1828 0.000206316 1 
26862 1 25.626 5.95804 -14.3874 0.000129193 1 
26863 1 25.1029 3.14444 -14.5024 0.000104069 1 
26864 1 27.7866 4.11275 -14.7091 7.37104e-05 1 
26865 1 26.4017 4.2766 -12.2032 0.000323392 1 
26866 1 29.0812 5.2415 -12.4106 0.000400499 1 
26867 1 28.561 2.43112 -12.5253 0.00022074 1 
26868 1 31.2423 3.39598 -12.7335 0.000297134 1 
26869 1 29.8541 3.5603 -10.2182 0.00103638 1 
26870 1 32.5328 4.52227 -10.4363 0.00113749 1 
26871 1 32.0149 1.7153 -10.5442 0.000887821 1 
26872 1 34.6931 2.6758 -10.7596 0.00101592 1 
26873 1 33.3013 2.83963 -8.23293 0.00518909 1 
26874 1 35.9744 3.79918 -8.46759 0.0038124 1 
26875 1 35.4619 0.994957 -8.55858 0.00524829 1 
26876 1 38.1311 1.95278 -8.79963 0.00421948 1 
26877 1 36.7297 2.11344 -6.24078 0.0355971 1 
26878 1 39.3982 3.081 -6.54019 0.0119848 1 
26879 1 38.8877 0.269025 -6.60893 0.029207 1 
26880 1 41.5737 1.22759 -6.8928 0.00599698 1 
26881 1 40.1582 1.39414 -4.37334 0.190273 1 
26882 1 42.856 2.36892 -4.67798 0.0772293 1 
26883 1 45.0895 0.520239 -5.08016 0.102961 1 
26884 1 43.7304 0.683009 -2.70145 0.602519 1 
26885 1 46.4321 1.65466 -2.79909 0.0414314 1 
26909 1 17.567 3.03822 -13.7692 0.000258726 1 
26910 1 20.2572 4.01585 -13.9788 0.000309747 1 
26911 1 19.7276 1.1982 -14.0843 0.000158692 1 
26912 1 22.4166 2.17294 -14.2958 0.000152262 1 
26913 1 21.0309 2.33257 -11.8009 0.000829479 1 
26914 1 23.7195 3.30827 -12.0033 0.000637754 1 
26915 1 23.1883 0.490237 -12.1161 0.000361412 1 
26916 1 25.8767 1.46309 -12.3225 0.000297203 1 
26917 1 24.49 1.62822 -9.82675 0.00167574 1 
26918 1 27.175 2.59744 -10.0197 0.000918458 1 
26919 1 29.3345 0.753276 -10.3431 0.000894139 1 
26920 1 27.9422 0.920092 -7.84442 0.00241258 1 
26921 1 30.6298 1.88652 -8.02303 0.00419566 1 
26922 1 32.7932 0.0436414 -8.35117 0.00434735 1 
26923 1 31.4067 0.216614 -5.84377 0.00734208 1 
26924 1 34.085 1.17836 -6.00075 0.0261246 1 
26925 1 37.525 0.473516 -3.94751 0.175674 1 
26941 1 12.1893 1.08625 -13.3376 0.000267033 1 
26942 1 14.8767 2.06074 -13.5529 0.000281826 1 
26943 1 17.0388 0.222733 -13.8682 0.000202194 1 
26944 1 15.6496 0.373782 -11.3599 0.000817566 1 
26945 1 18.3383 1.35176 -11.5843 0.000763766 1 
26946 1 21.7968 0.649004 -9.62126 0.00163278 1 
26951 1 9.50363 0.114577 -13.1296 0.000202652 1 
37429 1 45.8018 35.5217 -10.0382 0.00520393 1 
28327 1 -1.13974 29.7481 -12.6286 0.00263661 1 
28436 1 -0.344071 28.0744 -10.3873 0.0165307 1 
28437 1 -0.858486 25.2728 -10.5331 0.00356784 1 
28653 1 -0.638156 22.0604 -3.76061 5.7989 2 
28761 1 -0.428319 17.0957 -1.60404 9.28464 5 
29097 1 43.5542 15.6957 -13.2352 0.000558562 1 
29098 1 46.2382 16.6587 -13.4646 0.000450929 1 
29099 1 45.7144 13.8457 -13.5839 0.000452246 1 
29166 1 34.7359 14.4981 -14.7983 0.000495785 1 
29167 1 37.4187 15.461 -14.9959 0.000355247 1 
29170 1 38.1979 13.7794 -12.8168 0.000821264 1 
29171 1 40.8758 14.7366 -13.0175 0.000582759 1 
29172 1 40.3541 11.9266 -13.1493 0.00050454 1 
29173 1 43.0332 12.8854 -13.3595 0.000414461 1 
29174 1 41.6529 13.0488 -10.837 0.00139257 1 
29175 1 44.3286 14.002 -11.0597 0.00123966 1 
29176 1 43.8047 11.1926 -11.1858 0.00108198 1 
29177 1 46.4862 12.1472 -11.4187 0.00125961 1 
29178 1 45.1003 12.2972 -8.88964 0.003877 1 
29233 1 29.3571 12.5563 -14.3899 0.000349347 1 
29234 1 32.048 13.5297 -14.5996 0.000526725 1 
29235 1 31.5183 10.7107 -14.7106 0.000262067 1 
29236 1 34.2084 11.6817 -14.9202 0.000376501 1 
29237 1 32.8226 11.8475 -12.4311 0.00150665 1 
29238 1 35.5151 12.8185 -12.6263 0.00155793 1 
29239 1 34.9822 9.99682 -12.749 0.000969807 1 
29240 1 37.6715 10.9648 -12.9498 0.000839617 1 
29241 1 36.2913 11.1365 -10.4639 0.0043239 1 
29242 1 38.9766 12.0968 -10.6427 0.00221567 1 
29243 1 38.4428 9.27944 -10.7799 0.00192242 1 
29244 1 41.1266 10.2393 -10.9764 0.00110443 1 
29245 1 39.7476 10.4117 -8.47099 0.00609939 1 
29246 1 42.423 11.3566 -8.65604 0.00397941 1 
29247 1 41.8922 8.55128 -8.8089 0.00232177 1 
29248 1 44.576 9.4981 -9.01205 0.00248551 1 
29249 1 43.1938 9.66183 -6.48599 0.00770321 1 
29250 1 45.8804 10.5911 -6.6957 0.0150709 1 
29251 1 45.3493 7.80773 -6.83769 0.00841538 1 
29253 1 46.6582 8.89676 -4.4837 0.055163 1 
29291 1 23.9869 10.6133 -13.9539 0.000544029 1 
29292 1 26.6692 11.5831 -14.1707 0.000449486 1 
29293 1 26.1469 8.77026 -14.275 0.000271739 1 
29294 1 28.83 9.73931 -14.4924 0.000269024 1 
29295 1 27.4399 9.89853 -11.9816 0.00132568 1 
29296 1 30.1273 10.8711 -12.2132 0.00107393 1 
29297 1 29.6009 8.05341 -12.3074 0.000843925 1 
29298 1 32.2892 9.02405 -12.534 0.000767797 1 
29299 1 30.8932 9.18148 -10.0359 0.0036282 1 
29300 1 33.5928 10.161 -10.2693 0.00414263 1 
29301 1 33.0567 7.33521 -10.3506 0.00187603 1 
29302 1 35.7509 8.30965 -10.5765 0.00186958 1 
29303 1 34.3583 8.47086 -8.09874 0.00842543 1 
29304 1 37.0599 9.45253 -8.30146 0.0104821 1 
29305 1 36.5072 6.61967 -8.39683 0.00370673 1 
29306 1 39.2019 7.59173 -8.61473 0.00453872 1 
29307 1 37.7965 7.76403 -6.13982 0.0314333 1 
29308 1 40.4948 8.7217 -6.31168 0.0141835 1 
29309 1 39.9444 5.89809 -6.4644 0.0137679 1 
29310 1 42.653 6.86215 -6.66031 0.00820987 1 
29311 1 41.2321 7.00827 -4.1994 0.0399459 1 
29312 1 43.9571 7.95955 -4.32988 0.0216363 1 
29313 1 43.4197 5.16615 -4.54028 0.031316 1 
29314 1 46.1306 6.12843 -4.6738 0.0132416 1 
29315 1 44.7111 6.24717 -2.19911 0.0755415 1 
29317 1 46.9094 4.45249 -2.5332 0.040573 1 
29342 1 18.6247 8.67507 -13.5491 0.000653792 1 
29343 1 21.3068 9.64533 -13.7472 0.000537401 1 
29344 1 20.7845 6.83289 -13.8648 0.000373619 1 
29345 1 23.4666 7.80268 -14.0661 0.000263758 1 
29346 1 22.0892 7.96879 -11.5585 0.00129659 1 
29347 1 24.7634 8.93247 -11.7598 0.00119735 1 
29348 1 24.2446 6.12301 -11.8807 0.000731246 1 
29349 1 26.9211 7.0873 -12.0863 0.000680628 1 
29350 1 25.5388 7.25307 -9.56364 0.00376777 1 
29351 1 28.2082 8.21266 -9.78911 0.00367164 1 
29352 1 27.6953 5.40539 -9.89436 0.0016365 1 
29353 1 30.3714 6.36698 -10.1154 0.00186676 1 
29354 1 28.9822 6.52666 -7.58823 0.00821171 1 
29355 1 31.6608 7.48984 -7.84146 0.0101179 1 
29356 1 31.1457 4.68419 -7.90917 0.00421493 1 
29357 1 33.8186 5.64675 -8.1485 0.00563125 1 
29358 1 32.4289 5.81455 -5.59839 0.0405824 1 
29359 1 35.1059 6.77709 -5.89861 0.0398501 1 
29360 1 34.5753 3.95917 -5.92955 0.0389787 1 
29361 1 37.2425 4.92197 -6.20352 0.0149431 1 
29362 1 35.8466 5.05746 -3.66309 0.900549 5 
29363 1 38.4975 6.06099 -4.00716 0.170958 1 
29364 1 37.9964 3.21286 -3.97232 0.343169 1 
29365 1 40.6709 4.20119 -4.31734 0.0624399 1 
29366 1 39.1093 4.42052 -1.79855 9.6365 5 
29367 1 42.0069 5.26592 -2.12204 0.40091 1 
29368 1 41.3659 2.54412 -2.148 6.21952 5 
29369 1 44.2142 3.45191 -2.45573 0.166134 1 
29370 1 42.8493 3.40055 -0.0350988 9.30016 5 
29371 1 45.0775 1.70569 -0.378813 6.36237 2 
29389 1 13.2429 6.71643 -13.1491 0.000567765 1 
29390 1 15.9363 7.69767 -13.3534 0.00057828 1 
29391 1 15.4059 4.87735 -13.4576 0.000389399 1 
29392 1 18.0975 5.85752 -13.6648 0.000475033 1 
29393 1 16.7168 6.01307 -11.18 0.0018685 1 
29394 1 19.4078 6.99784 -11.3716 0.00170462 1 
29395 1 18.8742 4.17412 -11.4892 0.00137843 1 
29396 1 21.5644 5.15449 -11.6858 0.00138169 1 
29397 1 20.1867 5.32322 -9.20557 0.00528316 1 
29398 1 22.8726 6.29905 -9.3727 0.00584841 1 
29399 1 22.3388 3.47579 -9.51562 0.00376205 1 
29400 1 25.0221 4.4458 -9.69726 0.002183 1 
29401 1 23.648 4.62599 -7.20752 0.0114432 1 
29402 1 26.3201 5.57637 -7.36366 0.00860333 1 
29403 1 25.7916 2.76819 -7.51842 0.00581508 1 
29404 1 28.4668 3.72668 -7.69689 0.00401058 1 
29405 1 27.0801 3.89248 -5.16101 0.030961 1 
29406 1 29.7676 4.84427 -5.38008 0.0184508 1 
29407 1 29.2371 2.04688 -5.51764 0.00791274 1 
29408 1 31.9308 3.01811 -5.67936 0.0287901 1 
29409 1 30.5488 3.14214 -3.17792 0.0451562 1 
29410 1 33.2216 4.14563 -3.28819 0.386759 5 
29411 1 32.7 1.34257 -3.47554 0.0303362 1 
29412 1 35.3589 2.32365 -3.59426 0.206803 1 
29413 1 33.9577 2.53344 -1.01815 0.8351 1 
29414 1 36.541 3.57888 -1.07528 2.30422 5 
29415 1 36.0949 0.713947 -1.35234 0.235418 1 
29416 1 38.7384 1.67274 -1.47707 2.0195 5 
29417 1 42.4474 0.675627 -0.384232 14.1435 5 
29424 1 4.38292 5.49179 -14.6861 0.000165301 1 
29425 1 7.0748 6.45977 -14.9001 0.000238226 1 
29428 1 7.85448 4.76513 -12.7167 0.000566184 1 
29429 1 10.5473 5.73747 -12.9341 0.000573621 1 
29430 1 10.0235 2.92488 -13.0263 0.000387114 1 
29431 1 12.7133 3.89859 -13.2419 0.000403124 1 
29432 1 11.3227 4.04341 -10.7425 0.00185294 1 
29433 1 14.0196 5.0241 -10.9686 0.00153499 1 
29434 1 13.4878 2.20856 -11.0477 0.00122648 1 
29435 1 16.1796 3.18856 -11.2735 0.00105367 1 
29436 1 14.7881 3.33122 -8.77501 0.00527093 1 
29437 1 17.4912 4.32631 -9.01083 0.00572507 1 
29438 1 16.9467 1.49982 -9.0795 0.0037475 1 
29439 1 19.6437 2.48862 -9.31593 0.00381614 1 
29440 1 18.2601 2.63359 -6.83699 0.0201343 1 
29441 1 20.9544 3.64631 -7.05644 0.0169838 1 
29442 1 20.3997 0.802127 -7.13114 0.00936924 1 
29443 1 23.1024 1.79633 -7.34744 0.00993233 1 
29444 1 21.706 1.9788 -4.91071 0.075848 1 
29445 1 24.4047 2.94864 -5.03957 0.0391037 1 
29446 1 23.8346 0.111465 -5.18464 0.031971 1 
29447 1 26.5356 1.08316 -5.35554 0.0147674 1 
29448 1 25.0781 1.24593 -2.89002 0.194712 1 
29449 1 27.8187 2.17109 -3.02255 0.0920672 1 
29450 1 29.9938 0.347551 -3.36364 0.0211543 1 
29451 1 28.5167 0.395478 -0.914903 0.197549 1 
29452 1 31.285 1.40956 -0.986292 0.426963 1 
29454 1 1.69178 4.52649 -14.4749 0.000123607 1 
29455 1 1.17201 1.71116 -14.5857 0.000248752 1 
29456 1 3.86363 2.67876 -14.794 0.000102494 1 
29457 1 2.47272 2.83606 -12.304 0.000491415 1 
29458 1 5.16414 3.79926 -12.5066 0.000401407 1 
29459 1 4.64681 0.988894 -12.6185 0.000524422 1 
29460 1 7.33587 1.9559 -12.8184 0.000289505 1 
29461 1 5.94951 2.11158 -10.3216 0.00163558 1 
29462 1 8.63446 3.07347 -10.5224 0.00164327 1 
29463 1 8.12052 0.269006 -10.6304 0.00114197 1 
29464 1 10.8027 1.2362 -10.8307 0.00105061 1 
29465 1 9.41749 1.38853 -8.31518 0.00561732 1 
29466 1 12.0952 2.35343 -8.53343 0.00538863 1 
29467 1 14.2611 0.521977 -8.84119 0.00332547 1 
29468 1 12.8759 0.670927 -6.30932 0.0136698 1 
29469 1 15.5551 1.64406 -6.55634 0.0279226 1 
29470 1 16.347 0.000145493 -4.26109 0.185211 1 
29471 1 19.0143 0.937936 -4.61541 0.143944 1 
29472 1 22.3753 0.341125 -2.74962 0.423921 1 
29473 1 1.95358 0.0200319 -12.4174 0.00120539 1 
29474 1 0.560912 0.18321 -9.94701 0.00526732 1 
29475 1 3.26061 1.15188 -10.1365 0.00286658 1 
29476 1 6.74497 0.435419 -8.131 0.00754759 1 
40612 1 45.7406 38.1669 -0.698679 6.59274 2 
30640 1 -0.893921 37.0599 -14.6773 0.000343502 1 
26886 1 44.1771 76.3427 -0.695864 6.58947 2 
30749 1 -0.627127 32.5509 -12.5515 0.00235625 1 
30857 1 -1.24662 31.0185 -7.78894 0.0401193 1 
30859 1 -0.454046 29.369 -5.45775 0.142587 1 
30967 1 -0.957832 26.5591 -5.66307 0.024715 1 
30969 1 -0.193493 24.8913 -3.47817 5.96716 2 
31407 1 41.1413 22.0367 -14.9768 0.000268519 1 
31411 1 44.6046 21.3153 -13.0076 0.00057719 1 
31481 1 35.7765 20.1121 -14.5513 0.000688876 1 
31482 1 38.4571 21.0724 -14.7603 0.000607501 1 
31483 1 37.9382 18.268 -14.8715 0.000521147 1 
31485 1 39.2322 19.3877 -12.5588 0.00191036 1 
31486 1 41.915 20.3488 -12.7835 0.000995517 1 
31487 1 41.3938 17.5427 -12.8931 0.000853881 1 
31488 1 44.0772 18.5048 -13.1191 0.000425816 1 
31489 1 42.6894 18.6566 -10.5957 0.00199985 1 
31490 1 45.3829 19.6217 -10.8321 0.00124737 1 
31491 1 44.8524 16.8109 -10.9407 0.00138141 1 
31493 1 46.1644 17.9185 -8.66089 0.00356237 1 
31549 1 30.4129 18.1899 -14.1611 0.000730916 1 
31550 1 33.096 19.1528 -14.3529 0.000669834 1 
31551 1 32.5756 16.3455 -14.4769 0.000742346 1 
31552 1 35.2584 17.3082 -14.6709 0.000588347 1 
31553 1 33.8823 17.4807 -12.1611 0.00266978 1 
31554 1 36.5573 18.4331 -12.3504 0.00214727 1 
31555 1 36.0405 15.6313 -12.4872 0.0013486 1 
31556 1 38.717 16.586 -12.6811 0.000953501 1 
31557 1 37.3407 16.7573 -10.152 0.00383027 1 
31558 1 40.0082 17.7021 -10.3597 0.00411076 1 
31559 1 39.497 14.9028 -10.4936 0.00225488 1 
31560 1 42.1706 15.8532 -10.7052 0.00183145 1 
31561 1 40.7888 16.0108 -8.16317 0.0127823 1 
31562 1 43.47 16.9566 -8.40385 0.00743219 1 
31563 1 42.9535 14.159 -8.51891 0.00377956 1 
31564 1 45.6264 15.1076 -8.76578 0.00637759 1 
31565 1 44.2632 15.253 -6.192 0.0379415 1 
31567 1 46.3959 13.375 -6.61172 0.0415061 1 
31611 1 25.0346 16.2422 -13.7626 0.000508206 1 
31612 1 27.7247 17.2185 -13.9677 0.000611606 1 
31613 1 27.1973 14.3994 -14.074 0.000474003 1 
31614 1 29.8875 15.3752 -14.2812 0.000649038 1 
31615 1 28.5052 15.5376 -11.7948 0.00228484 1 
31616 1 31.1971 16.5165 -11.9845 0.00233355 1 
31617 1 30.6626 13.6947 -12.1107 0.00189308 1 
31618 1 33.3562 14.6697 -12.3045 0.00202136 1 
31619 1 31.9742 14.8447 -9.82627 0.00719021 1 
31620 1 34.6656 15.8124 -9.98503 0.00442484 1 
31621 1 34.1339 12.994 -10.1484 0.00636661 1 
31622 1 36.8239 13.9568 -10.3115 0.00465438 1 
31623 1 35.4468 14.1455 -7.83085 0.0116119 1 
31624 1 38.131 15.0843 -7.9546 0.0173795 1 
31625 1 37.6038 12.2781 -8.1529 0.0111741 1 
31626 1 40.2812 13.2164 -8.30903 0.00562346 1 
31627 1 38.9179 13.3904 -5.79071 0.0382908 1 
31628 1 41.5945 14.3131 -5.97048 0.0224032 1 
31629 1 41.0444 11.5221 -6.11309 0.0347602 1 
31630 1 43.7359 12.451 -6.34178 0.0107633 1 
31631 1 42.4248 12.5775 -3.80823 0.129589 1 
31632 1 45.0717 13.5083 -3.99581 0.0882254 1 
31633 1 44.5325 10.7315 -4.14769 0.0350934 1 
31635 1 45.8918 11.7787 -1.72699 2.47852 5 
31665 1 19.6617 14.2957 -13.3291 0.000618516 1 
31666 1 22.346 15.2664 -13.5459 0.000602837 1 
31667 1 21.8257 12.454 -13.6401 0.000640454 1 
31668 1 24.5091 13.4244 -13.8563 0.000605624 1 
31669 1 23.1242 13.577 -11.3494 0.00343025 1 
31670 1 25.8126 14.5539 -11.5806 0.00255241 1 
31671 1 25.2818 11.7403 -11.6556 0.00264651 1 
31672 1 27.9671 12.7145 -11.8892 0.00166012 1 
31673 1 26.5714 12.8676 -9.37243 0.0107732 1 
31674 1 29.2722 13.8547 -9.62769 0.00646393 1 
31675 1 28.7301 11.0281 -9.70902 0.00446019 1 
31676 1 31.4313 12.0113 -9.95265 0.00528961 1 
31677 1 30.0315 12.1698 -7.47903 0.0167507 1 
31678 1 32.7437 13.1741 -7.69809 0.02453 1 
31679 1 32.1993 10.3171 -7.80575 0.0194379 1 
31680 1 34.9072 11.3137 -8.01203 0.020432 1 
31681 1 33.5096 11.5106 -5.60888 0.127138 1 
31682 1 36.213 12.4688 -5.71087 0.0418723 1 
31683 1 35.6704 9.64138 -5.86932 0.0729707 1 
31684 1 38.3653 10.5977 -5.98715 0.0367198 1 
31685 1 36.9711 10.853 -3.54815 4.36411 5 
31686 1 39.6687 11.7069 -3.55691 5.40655 5 
31687 1 39.0488 8.89713 -3.84259 0.16019 1 
31688 1 41.7961 9.80258 -3.97644 0.083725 1 
31689 1 40.2452 9.84763 -1.51405 5.9306 5 
31690 1 43.1857 10.7527 -1.64322 1.7262 5 
31691 1 42.4961 8.04157 -1.86591 0.201549 1 
31692 1 45.2733 9.01362 -1.94607 0.484685 1 
31706 1 10.8177 13.072 -14.8963 0.000350305 1 
31710 1 14.2962 12.356 -12.9258 0.000459634 1 
31711 1 16.9796 13.3273 -13.1229 0.000398453 1 
31712 1 16.4611 10.5147 -13.2384 0.000416237 1 
31713 1 19.1446 11.4858 -13.4344 0.000530413 1 
31714 1 17.7685 11.6465 -10.9334 0.00150159 1 
31715 1 20.4456 12.6107 -11.1289 0.00334688 1 
31716 1 19.9332 9.81168 -11.2385 0.00335324 1 
31717 1 22.6062 10.7738 -11.4365 0.00314135 1 
31718 1 21.2389 10.9474 -8.89592 0.0218908 1 
31719 1 23.8962 11.8956 -9.11736 0.0196799 1 
31720 1 23.3878 9.10126 -9.22941 0.00494508 1 
31721 1 26.0505 10.058 -9.45235 0.00594265 1 
31722 1 24.674 10.223 -6.87946 0.023714 1 
31723 1 27.3325 11.1801 -7.17684 0.0218516 1 
31724 1 26.8206 8.37252 -7.24531 0.0248163 1 
31725 1 29.4899 9.33537 -7.52575 0.0209803 1 
31726 1 28.0898 9.4739 -4.97219 0.347474 1 
31727 1 30.8218 10.4768 -5.36192 0.0929772 1 
31728 1 30.2601 7.64894 -5.31822 0.107693 1 
31729 1 32.9794 8.61679 -5.62576 0.0896709 1 
31730 1 31.6575 8.68849 -3.19782 6.70742 5 
31731 1 34.257 9.90966 -3.51328 4.40058 5 
31732 1 33.7606 6.87444 -3.31568 1.31116 5 
31733 1 36.343 8.00268 -3.70759 0.408388 1 
31734 1 34.6062 8.45418 -1.33973 8.43682 5 
31735 1 37.4198 9.232 -1.43967 8.23065 5 
31736 1 36.8601 6.38676 -1.58563 8.23195 5 
31737 1 39.7635 7.12082 -1.80432 0.990087 5 
31746 1 5.42791 11.125 -14.4777 0.000588743 1 
31747 1 8.12436 12.0982 -14.6915 0.000556536 1 
31748 1 7.59878 9.27703 -14.8 0.000403913 1 
31750 1 8.90909 10.4001 -12.5318 0.0012477 1 
31751 1 11.6071 11.38 -12.7322 0.00094783 1 
31752 1 11.0774 8.55704 -12.8418 0.00084277 1 
31753 1 13.7726 9.53783 -13.0436 0.000674145 1 
31754 1 12.3952 9.6879 -10.5698 0.00287715 1 
31755 1 15.0877 10.6731 -10.7507 0.00185256 1 
31756 1 14.5572 7.85024 -10.8742 0.00231734 1 
31757 1 17.2493 8.83652 -11.0598 0.00182487 1 
31758 1 15.8753 8.99699 -8.58437 0.00567489 1 
31759 1 18.5605 9.98174 -8.73942 0.00550552 1 
31760 1 18.0321 7.16347 -8.89368 0.00569866 1 
31761 1 20.7176 8.14543 -9.0556 0.00456215 1 
31762 1 19.3419 8.32669 -6.57017 0.0125529 1 
31763 1 22.0187 9.2889 -6.69554 0.00965028 1 
31764 1 21.499 6.48475 -6.89243 0.0135133 1 
31765 1 24.178 7.43969 -7.01371 0.0311087 1 
31766 1 22.7945 7.62244 -4.51491 0.0223917 1 
31767 1 25.4835 8.55665 -4.59974 0.22765 1 
31768 1 24.9525 5.75047 -4.84546 0.0323875 1 
31769 1 27.6202 6.69279 -5.01833 0.0493085 1 
31770 1 26.3259 6.84066 -2.46875 0.710323 1 
31771 1 28.9629 7.78595 -2.66206 1.61007 5 
31772 1 28.4343 4.96422 -2.85111 0.172554 1 
31773 1 31.0621 5.9456 -3.02892 0.202538 1 
31775 1 0.0427741 9.19118 -14.0322 0.00032506 1 
31776 1 2.73318 10.1557 -14.2555 0.000494874 1 
31777 1 2.21155 7.33999 -14.3641 0.000272172 1 
31778 1 4.90392 8.30608 -14.5826 0.000388822 1 
31779 1 3.50913 8.45444 -12.0889 0.00122323 1 
31780 1 6.20751 9.42299 -12.3155 0.00128451 1 
31781 1 5.68258 6.60777 -12.4064 0.000846397 1 
31782 1 8.37887 7.57842 -12.627 0.00087189 1 
31783 1 6.98339 7.71716 -10.1402 0.00348579 1 
31784 1 9.69054 8.69789 -10.3685 0.00307305 1 
31785 1 9.15422 5.87917 -10.4399 0.00258201 1 
31786 1 11.8564 6.86038 -10.6682 0.00218639 1 
31787 1 10.4613 6.99219 -8.19261 0.00827542 1 
31788 1 13.177 7.99448 -8.41411 0.0101923 1 
31789 1 12.6256 5.16241 -8.48305 0.00711546 1 
31790 1 15.3365 6.16043 -8.71038 0.00805404 1 
31791 1 13.956 6.29481 -6.26983 0.0425001 1 
31792 1 16.6546 7.32199 -6.43894 0.0155655 1 
31793 1 16.1168 4.46195 -6.54667 0.0281288 1 
31794 1 18.8061 5.49256 -6.74972 0.0192525 1 
31795 1 17.4366 5.64074 -4.30905 0.051822 1 
31796 1 20.1055 6.66354 -4.43909 0.0337083 1 
31797 1 19.5581 3.83675 -4.62416 0.103811 1 
31798 1 22.2545 4.81412 -4.765 0.0412607 1 
31799 1 20.9102 5.06124 -2.3043 7.6266 2 
31800 1 23.5932 5.99066 -2.37629 6.20442 5 
31801 1 23.0101 3.2017 -2.61099 4.75439 5 
31802 1 25.696 4.07159 -2.60983 5.36456 5 
31803 1 26.2471 2.19724 -0.563531 5.88161 5 
31804 1 29.1807 3.11029 -0.695808 1.60415 5 
31805 1 0.81665 7.494 -11.8646 0.000774713 1 
31806 1 0.297858 4.68484 -11.9814 0.000460849 1 
31807 1 2.98979 5.64484 -12.1906 0.000559303 1 
31808 1 1.59356 5.79912 -9.69068 0.00257273 1 
31809 1 4.28494 6.75272 -9.9082 0.00310928 1 
31810 1 3.77257 3.95481 -10.0099 0.00206909 1 
31811 1 6.46164 4.91203 -10.2155 0.00233428 1 
31812 1 5.06368 5.05971 -7.70242 0.0132705 1 
31813 1 7.75043 6.01448 -7.93387 0.0116471 1 
31814 1 7.24389 3.22394 -8.00772 0.00930276 1 
31815 1 9.9253 4.18379 -8.23193 0.00795076 1 
31816 1 8.52138 4.32113 -5.69625 0.0614096 1 
31817 1 11.2147 5.28899 -5.9849 0.0409935 1 
31818 1 10.703 2.49612 -5.99431 0.0338675 1 
31819 1 13.3819 3.4699 -6.26801 0.0407197 1 
31820 1 11.9488 3.61103 -3.70551 0.675145 1 
31821 1 14.7601 4.59258 -4.12885 0.196224 1 
31822 1 14.1465 1.80176 -4.01897 0.280406 1 
31823 1 16.9147 2.76843 -4.35 0.165428 1 
31824 1 15.61 2.77424 -1.94299 5.95019 5 
31825 1 18.1765 3.96065 -2.12529 7.59764 5 
31826 1 17.7728 1.08527 -1.91134 5.5051 5 
31827 1 20.3182 2.23067 -2.53458 5.98038 5 
31828 1 20.5949 0.750855 -0.362043 8.66244 5 
31829 1 23.4035 1.60009 -0.487965 8.5455 5 
31830 1 1.081 3.00004 -9.81744 0.00237766 1 
31831 1 2.38463 4.12224 -7.504 0.00958147 1 
31832 1 1.87413 1.32631 -7.67029 0.00816785 1 
31833 1 4.56856 2.28072 -7.82132 0.00865903 1 
31834 1 3.187 2.4677 -5.33667 0.0102129 1 
31835 1 5.86888 3.40222 -5.45678 0.0473483 1 
31836 1 5.37061 0.622317 -5.65075 0.0122497 1 
31837 1 8.04958 1.56234 -5.76987 0.0398075 1 
31838 1 6.65383 1.74805 -3.2622 0.0474679 1 
31839 1 9.34894 2.66435 -3.34884 0.336363 1 
31840 1 11.5186 0.828385 -3.72259 0.11285 1 
31841 1 10.2307 1.00142 -1.16845 1.33713 5 
31842 1 12.9291 1.89017 -1.30016 1.79235 5 
31843 1 15.0013 0.0564812 -1.72562 0.33451 1 
31844 1 0.490803 1.50495 -5.22193 0.0153175 1 
31845 1 3.96995 0.813825 -3.19247 0.0475966 1 
31846 1 7.50334 0.194843 -1.09032 6.66639 5 
32803 1 -0.377045 39.8773 -14.5881 0.000188252 1 
32912 1 -0.978627 38.3539 -9.93695 0.00469181 1 
44872 1 44.1637 75.0213 -5.40988 0.129781 1 
33021 1 -0.180071 36.6687 -7.79039 0.0258713 1 
33022 1 -0.724326 33.8234 -7.80403 0.0247687 1 
48160 2 9.01097 52.4902 4.02205 0.0263393 1 
33238 1 -0.55301 29.2872 -0.451962 1.32367 5 
33239 1 -0.881088 26.506 -0.833545 0.827043 1 
33577 1 42.1854 27.6586 -14.77 0.000202331 1 
33578 1 44.8675 28.6221 -14.9736 0.000336207 1 
33581 1 45.6498 26.9342 -12.7743 0.00116984 1 
33653 1 36.8141 25.7262 -14.3562 0.000231388 1 
33654 1 39.5005 26.6931 -14.5664 0.000204097 1 
33655 1 38.9793 23.8801 -14.6641 0.000284443 1 
33656 1 41.6656 24.8473 -14.8755 0.000216223 1 
33657 1 40.2821 25.0038 -12.3787 0.00117903 1 
33658 1 42.9692 25.9717 -12.5788 0.000901737 1 
33659 1 42.4444 23.1588 -12.6857 0.000843811 1 
33660 1 45.1319 24.1271 -12.8916 0.00127268 1 
33661 1 43.7536 24.2851 -10.3935 0.00470872 1 
33663 1 45.9145 22.4365 -10.7125 0.00318611 1 
33720 1 31.4457 23.8015 -13.9324 0.000461877 1 
33721 1 34.1288 24.7617 -14.1415 0.000463939 1 
33722 1 33.6122 21.9557 -14.2404 0.000591777 1 
33723 1 36.2943 22.9156 -14.4491 0.000621531 1 
33724 1 34.9078 23.0721 -11.9383 0.00296072 1 
33725 1 37.593 24.034 -12.1621 0.00208208 1 
33726 1 37.0711 21.2298 -12.2391 0.00280535 1 
33727 1 39.7535 22.191 -12.4638 0.00147415 1 
33728 1 38.3582 22.3417 -9.9401 0.00930619 1 
33729 1 41.0555 23.3116 -10.189 0.00444539 1 
33730 1 40.5208 20.5023 -10.257 0.00594376 1 
33731 1 43.2179 21.4672 -10.4995 0.00285431 1 
33732 1 41.8134 21.6185 -7.9968 0.0192846 1 
33733 1 44.5394 22.5884 -8.229 0.0180362 1 
33734 1 43.9989 19.7657 -8.32838 0.00680731 1 
33736 1 45.3425 20.867 -6.07913 0.0741372 1 
33779 1 26.0775 21.8778 -13.539 0.000336663 1 
33780 1 28.7626 22.8418 -13.7332 0.00031656 1 
33781 1 28.2462 20.033 -13.8506 0.000415308 1 
33782 1 30.9305 20.9966 -14.0423 0.000497813 1 
33783 1 29.5498 21.165 -11.5426 0.00115854 1 
33784 1 32.2288 22.1189 -11.7299 0.00259859 1 
33785 1 31.7195 19.3246 -11.8457 0.00299536 1 
33786 1 34.395 20.2765 -12.0329 0.00300369 1 
33787 1 33.0222 20.4545 -9.49829 0.0165633 1 
33788 1 35.6835 21.3884 -9.70163 0.0180219 1 
33789 1 35.1854 18.6112 -9.8138 0.0114307 1 
33790 1 37.8464 19.5475 -10.0165 0.0109074 1 
33791 1 36.4815 19.7324 -7.4206 0.0692519 1 
33792 1 39.1256 20.6495 -7.69993 0.0547763 1 
33793 1 38.6309 17.8671 -7.79335 0.017518 1 
33794 1 41.2967 18.8068 -8.06359 0.0161808 1 
33795 1 39.927 18.9536 -5.46104 0.0900878 1 
33796 1 42.6011 19.9141 -5.84749 0.0770729 1 
33797 1 42.0754 17.0946 -5.86902 0.153682 1 
33798 1 44.8069 18.0531 -6.1459 0.0438078 1 
33799 1 43.4422 18.122 -3.7424 5.78643 5 
33800 1 46.0937 19.1751 -3.82126 4.56958 5 
33801 1 45.594 16.3148 -3.89116 0.257522 1 
33833 1 20.6991 19.9327 -13.1354 0.000553481 1 
33834 1 23.3893 20.908 -13.3427 0.000547185 1 
33835 1 22.8685 18.0866 -13.4513 0.000561123 1 
33836 1 25.5585 19.0625 -13.6564 0.00057732 1 
33837 1 24.1782 19.2253 -11.178 0.00242444 1 
33838 1 26.8671 20.2008 -11.3629 0.0013718 1 
33839 1 26.3442 17.38 -11.4862 0.00233941 1 
33840 1 29.0342 18.3584 -11.6717 0.00185434 1 
33841 1 27.6566 18.527 -9.19566 0.00493029 1 
33842 1 30.3419 19.5001 -9.34939 0.00502754 1 
33843 1 29.817 16.6872 -9.5063 0.0063724 1 
33844 1 32.5074 17.6613 -9.66084 0.00533967 1 
33845 1 31.1241 17.8404 -7.17914 0.0107399 1 
33846 1 33.8102 18.8011 -7.29137 0.0111765 1 
33847 1 33.2861 15.9998 -7.50238 0.011063 1 
33848 1 35.9694 16.9462 -7.62203 0.0095661 1 
33849 1 34.5741 17.1353 -5.11814 0.0169428 1 
33850 1 37.2602 18.047 -5.21253 0.0369168 1 
33851 1 36.7466 15.2671 -5.45121 0.0233806 1 
33852 1 39.4382 16.1823 -5.5531 0.109133 1 
33853 1 38.1126 16.3486 -3.01255 1.81234 5 
33854 1 40.8281 17.2715 -3.11141 1.87074 5 
33855 1 40.3052 14.4533 -3.42156 0.565715 1 
33856 1 42.9323 15.368 -3.60083 0.238782 1 
33857 1 41.745 15.261 -0.920404 6.98099 5 
33858 1 44.2604 16.4788 -1.23551 10.3272 5 
33859 1 43.8242 13.5804 -1.38692 5.87366 2 
33860 1 46.488 14.4684 -1.61833 7.42996 5 
33877 1 11.8525 18.7064 -14.648 0.000239172 1 
33878 1 14.5365 19.676 -14.8645 0.000231205 1 
33879 1 14.0225 16.8601 -14.9801 0.000183488 1 
33881 1 15.3261 17.9855 -12.6927 0.000663517 1 
33882 1 18.0101 18.9576 -12.9155 0.000579193 1 
33883 1 17.4947 16.1398 -13.0156 0.000631317 1 
33884 1 20.1797 17.1108 -13.234 0.000582207 1 
33885 1 18.7965 17.2635 -10.7391 0.00255243 1 
33886 1 21.4866 18.2408 -10.9687 0.00216785 1 
33887 1 20.963 15.4175 -11.0457 0.00272681 1 
33888 1 23.6516 16.3957 -11.2764 0.00221292 1 
33889 1 22.271 16.5379 -8.79351 0.00936463 1 
33890 1 24.965 17.5383 -9.02334 0.0108326 1 
33891 1 24.4263 14.6982 -9.08916 0.0163661 1 
33892 1 27.1246 15.6927 -9.32138 0.0115799 1 
33893 1 25.7475 15.8361 -6.88185 0.0808931 1 
33894 1 28.4341 16.8492 -7.04712 0.0178537 1 
33895 1 27.8775 14.0015 -7.13857 0.0228559 1 
33896 1 30.5862 15.0142 -7.36797 0.0228569 1 
33897 1 29.2015 15.1659 -4.92829 0.0904658 1 
33898 1 31.886 16.1686 -5.0438 0.0231892 1 
33899 1 31.3454 13.3409 -5.26243 0.0749838 1 
33900 1 34.0457 14.3263 -5.3785 0.0304372 1 
33901 1 32.6731 14.5213 -2.91185 7.35996 2 
33902 1 35.3539 15.5158 -2.96034 6.77266 2 
33903 1 34.8879 12.7309 -3.25083 7.37414 2 
33904 1 37.5694 13.6372 -3.32459 6.1395 5 
33905 1 34.4948 14.1393 -0.701982 0.370977 1 
33906 1 39.1047 14.031 -0.954866 8.62891 5 
33907 1 36.8284 12.3096 -1.06716 6.2441 5 
33908 1 41.183 12.4674 -1.28174 8.09202 5 
33917 1 6.47832 16.7678 -14.2318 0.000573552 1 
33918 1 9.16753 17.7375 -14.4386 0.000327353 1 
33919 1 8.64818 14.9193 -14.5698 0.000489884 1 
33920 1 11.3374 15.8904 -14.7732 0.000249159 1 
33921 1 9.96158 16.0452 -12.2817 0.000925897 1 
33922 1 12.6455 17.0157 -12.4803 0.000605605 1 
33923 1 12.1301 14.1996 -12.6081 0.000672713 1 
33924 1 14.8133 15.1707 -12.806 0.00047298 1 
33925 1 13.4435 15.325 -10.3063 0.00202758 1 
33926 1 16.1169 16.2937 -10.5111 0.00239247 1 