ITEM: TIMESTEP
0
ITEM: NUMBER OF ATOMS
3078
ITEM: BOX BOUNDS xy xz yz pp pp ss
-19.685249871 39.370499743 -19.685249871
0 43.596326537 0
-110.0759718624309 113.530282045035 0
ITEM: ATOMS id type x y z c_csym c_cna 
3885 1 38.4288 1.41874 -14.5283 0.000129331 1 
4830 1 -0.631202 6.35976 -14.8694 6.79063e-05 1 
4831 1 -0.945346 8.19291 -12.6839 0.000293164 1 
4839 1 37.1781 3.96116 -14.9616 0.00010236 1 
4840 1 35.3045 3.39878 -12.8765 0.000399069 1 
4841 1 -2.50574 5.79865 -12.7798 0.000253893 1 
4842 1 -1.2532 3.25838 -12.3556 0.000575441 1 
4843 1 -1.56684 5.1011 -10.171 0.00126455 1 
4844 1 33.7426 0.994577 -12.9645 0.000335761 1 
4845 1 36.5555 0.853052 -12.4436 0.000474975 1 
4846 1 36.2458 2.69693 -10.2778 0.00230999 1 
4847 1 37.1941 1.99359 -7.69863 0.0127687 1 
4848 1 -0.622483 4.41106 -7.57229 0.00536219 1 
4849 1 38.1631 1.28685 -5.15421 0.0802881 1 
5777 1 -3.4421 13.266 -13.5647 0.000199986 1 
5778 1 -1.87869 15.6682 -13.4852 0.000232985 1 
5779 1 -0.630334 13.1239 -13.0426 0.000282184 1 
5780 1 -0.939247 14.9589 -10.8809 0.00120234 1 
5801 1 32.8017 8.47414 -13.7314 0.000160611 1 
5802 1 34.3644 10.8685 -13.6445 0.000249147 1 
5803 1 -3.75707 8.33366 -13.2075 0.000221731 1 
5804 1 -2.19459 10.7271 -13.1205 0.000339677 1 
5805 1 -4.07174 10.1614 -11.0208 0.00114541 1 
5806 1 -2.50614 12.5545 -10.9475 0.00123367 1 
5807 1 -1.26126 10.0197 -10.4956 0.00146426 1 
5808 1 -1.57751 11.8373 -8.31765 0.00641238 1 
5817 1 29.6794 3.67972 -13.9185 0.000194589 1 
5818 1 31.2403 6.07876 -13.8248 0.000123398 1 
5819 1 32.4919 3.53918 -13.3974 0.000275854 1 
5820 1 34.0526 5.93869 -13.3023 0.000180496 1 
5821 1 32.1786 5.37888 -11.2143 0.000640333 1 
5822 1 33.7373 7.77229 -11.1118 0.000668367 1 
5823 1 34.9911 5.23996 -10.6926 0.000910875 1 
5824 1 -2.82186 7.63275 -10.5871 0.000915616 1 
5825 1 34.6717 7.0767 -8.48774 0.0026815 1 
5826 1 -3.14342 9.45688 -8.38452 0.00439602 1 
5827 1 -1.88825 6.93953 -7.9624 0.00369591 1 
5828 1 -2.22707 8.76436 -5.72846 0.0156403 1 
5829 1 -0.664248 11.1144 -5.66801 0.0531503 1 
5830 1 28.1178 1.27745 -14.0065 0.000169519 1 
5831 1 30.9301 1.13608 -13.4852 0.000233021 1 
5832 1 29.0577 0.569256 -11.4004 0.000876359 1 
5833 1 30.6196 2.97739 -11.3152 0.00117162 1 
5834 1 33.4325 2.83693 -10.7963 0.00161094 1 
5835 1 31.5648 2.27373 -8.7258 0.00666251 1 
5836 1 33.1202 4.68511 -8.61031 0.00361796 1 
5837 1 34.3787 2.13251 -8.21195 0.00862667 1 
5838 1 35.9336 4.54793 -8.09101 0.00461878 1 
5839 1 34.0738 3.99004 -6.02873 0.0110829 1 
5840 1 35.6058 6.39479 -5.86129 0.0131385 1 
5841 1 36.888 3.85474 -5.51379 0.0122938 1 
5842 1 -0.95363 6.26152 -5.34056 0.0128776 1 
5843 1 36.5414 5.69324 -3.26315 0.0479268 1 
5844 1 -1.33322 8.08937 -3.06333 0.0709485 1 
5845 1 32.5241 1.56016 -6.16326 0.0367111 1 
5846 1 35.3401 1.41968 -5.65774 0.0478334 1 
5847 1 33.5195 0.833608 -3.64016 0.263297 1 
5848 1 35.0473 3.27344 -3.47386 0.0615973 1 
5849 1 36.354 0.721214 -3.15011 0.381189 1 
5850 1 37.8654 3.15111 -2.96495 0.0415715 1 
5851 1 36.0771 2.49325 -0.922928 6.49275 2 
5852 1 -1.88086 4.94606 -0.667851 6.69828 2 
5853 1 -0.468444 2.49441 -0.412795 6.48152 2 
6652 1 -2.81911 23.1468 -14.2552 0.00011583 1 
6653 1 -1.25612 25.5419 -14.1687 0.000176135 1 
6696 1 -5.94175 18.3525 -14.4399 0.000140295 1 
6697 1 -4.38071 20.7512 -14.3471 8.70653e-05 1 
6698 1 -3.12932 18.2118 -13.9185 0.000194585 1 
6699 1 -1.56843 20.6109 -13.8248 0.000123409 1 
6700 1 -3.4427 20.0504 -11.7359 0.000458173 1 
6701 1 -1.88306 22.4439 -11.6366 0.000486989 1 
6702 1 -0.630159 19.911 -11.2143 0.000640307 1 
6703 1 -0.947979 21.7458 -9.01375 0.00203927 1 
6736 1 30.3041 13.5494 -14.6108 9.97802e-05 1 
6737 1 31.8671 15.9509 -14.5283 0.000129322 1 
6738 1 33.1165 13.4077 -14.0878 0.000146638 1 
6739 1 -4.69093 15.8096 -14.0065 0.000169495 1 
6740 1 -6.56365 15.2436 -11.9221 0.000665801 1 
6741 1 -5.00205 17.6502 -11.8349 0.000856803 1 
6742 1 -3.75103 15.1014 -11.4004 0.000876436 1 
6743 1 -2.1892 17.5095 -11.3152 0.00117165 1 
6744 1 -4.05799 16.948 -9.24178 0.00501115 1 
6745 1 -2.50204 19.3556 -9.12941 0.00266072 1 
6746 1 -1.24399 16.8058 -8.7258 0.0066625 1 
6747 1 -1.55094 18.6619 -6.54196 0.0086774 1 
6768 1 27.1775 8.75561 -14.7784 8.82286e-05 1 
6769 1 28.7404 11.1511 -14.6924 0.00012389 1 
6770 1 29.9896 8.61471 -14.2552 0.000115826 1 
6771 1 31.5526 11.0098 -14.1687 0.000176136 1 
6772 1 29.6763 10.4436 -12.0732 0.000611166 1 
6773 1 31.242 12.8395 -11.9967 0.000619945 1 
6774 1 32.488 10.3025 -11.5472 0.000846871 1 
6775 1 -5.31669 12.6971 -11.4718 0.000950326 1 
6776 1 32.1772 12.1247 -9.37431 0.00391029 1 
6777 1 -5.62199 14.531 -9.32013 0.00333723 1 
6778 1 -4.38434 11.9812 -8.8442 0.006144 1 
6779 1 -2.80949 14.3854 -8.79658 0.00454738 1 
6780 1 -4.68239 13.8067 -6.71668 0.0189146 1 
6781 1 -3.10199 16.2403 -6.67281 0.0301249 1 
6782 1 -1.87295 13.6509 -6.1821 0.0292845 1 
6783 1 -2.10934 15.5227 -4.14286 0.211555 1 
6784 1 -0.571016 17.9547 -3.98536 0.0648058 1 
6794 1 24.0546 3.96116 -14.9616 0.000102365 1 
6795 1 25.6158 6.35976 -14.8694 6.79062e-05 1 
6796 1 26.867 3.8204 -14.4399 0.000140303 1 
6797 1 28.428 6.21911 -14.3471 8.70584e-05 1 
6798 1 26.5536 5.65838 -12.2577 0.000337817 1 
6799 1 28.1137 8.05201 -12.1607 0.000366216 1 
6800 1 29.366 5.51833 -11.7359 0.000458192 1 
6801 1 30.9257 7.91182 -11.6366 0.000487004 1 
6802 1 29.0488 7.35203 -9.53888 0.00172083 1 
6803 1 30.6088 9.7362 -9.44449 0.00255007 1 
6804 1 31.8608 7.21368 -9.01375 0.00203921 1 
6805 1 33.4187 9.59666 -8.91416 0.00331241 1 
6806 1 31.5337 9.03365 -6.79826 0.0105386 1 
6807 1 33.099 11.406 -6.72645 0.0229305 1 
6808 1 34.3392 8.89903 -6.26119 0.0114301 1 
6809 1 -3.47036 11.2625 -6.18536 0.0342885 1 
6810 1 33.9831 10.7027 -4.01962 0.129427 1 
6811 1 -3.78053 13.0705 -4.08267 0.19574 1 
6812 1 -2.59512 10.5723 -3.46324 0.181095 1 
6813 1 -0.981559 12.8891 -3.53738 1.56754 5 
6814 1 -3.06362 12.4574 -1.3244 8.61596 5 
6815 1 -1.02232 14.7463 -1.65609 5.88768 5 
6817 1 25.3053 1.41874 -14.5283 0.000129342 1 
6818 1 23.432 0.853052 -12.4436 0.000474929 1 
6819 1 24.9938 3.25838 -12.3556 0.000575426 1 
6820 1 26.2451 0.711456 -11.9221 0.000665757 1 
6821 1 27.8067 3.11804 -11.8349 0.000856772 1 
6822 1 25.9364 2.55707 -9.75941 0.00340004 1 
6823 1 27.4932 4.96277 -9.64905 0.00203705 1 
6824 1 28.7508 2.41586 -9.24178 0.00501119 1 
6825 1 30.3067 4.82346 -9.12941 0.00266071 1 
6826 1 28.4408 4.27146 -7.05548 0.0063202 1 
6827 1 29.9841 6.66556 -6.91038 0.00859537 1 
6828 1 31.2578 4.12984 -6.54196 0.00867734 1 
6829 1 32.7964 6.52893 -6.38575 0.0107407 1 
6830 1 30.9302 5.9785 -4.30318 0.0425722 1 
6831 1 32.4408 8.35923 -4.11704 0.0737585 1 
6832 1 33.7399 5.83179 -3.78185 0.0621486 1 
6833 1 35.2389 8.22502 -3.58183 0.0893338 1 
6834 1 33.2935 7.57423 -1.46639 5.7388 5 
6835 1 34.7306 10.0307 -1.2042 5.80477 5 
6836 1 -3.28765 7.44818 -0.927475 6.35778 2 
6837 1 26.8878 1.8542 -7.18533 0.0196261 1 
6838 1 29.7068 1.7082 -6.67281 0.0301255 1 
6839 1 27.864 1.14978 -4.65056 0.132277 1 
6840 1 29.4131 3.57502 -4.49003 0.032228 1 
6841 1 30.6994 0.990636 -4.14286 0.211549 1 
6842 1 32.2377 3.42255 -3.98536 0.064805 1 
6843 1 30.4244 2.77136 -1.9553 1.31778 5 
6844 1 31.8631 5.15652 -1.71477 5.70548 5 
6845 1 33.2494 2.58681 -1.42843 5.76244 5 
6846 1 34.669 4.99444 -1.18095 6.28118 2 
7431 1 -2.19244 33.0254 -14.9616 0.000102361 1 
7432 1 -0.631202 35.424 -14.8694 6.79057e-05 1 
7491 1 -2.50463 28.0815 -14.6108 9.97829e-05 1 
7492 1 -0.941654 30.483 -14.5283 0.000129335 1 
7493 1 -2.81497 29.9173 -12.4436 0.000474957 1 
7494 1 -1.2532 32.3226 -12.3556 0.000575426 1 
7549 1 -5.63128 23.2877 -14.7784 8.82327e-05 1 
7550 1 -4.06836 25.6833 -14.6924 0.000123892 1 
7551 1 -5.94466 25.1173 -12.5973 0.000446049 1 
7552 1 -4.37964 27.5138 -12.5203 0.00040522 1 
7553 1 -3.13241 24.9757 -12.0732 0.000611164 1 
7554 1 -1.56677 27.3716 -11.9967 0.000619939 1 
7555 1 -3.4437 26.7998 -9.90282 0.0023852 1 
7556 1 -1.87377 29.2061 -9.84193 0.00234678 1 
7557 1 -0.631589 26.6568 -9.37431 0.00391023 1 
7558 1 -0.931959 28.4848 -7.24228 0.0118025 1 
7604 1 30.6163 18.4933 -14.9616 0.000102359 1 
7605 1 -7.19295 20.8919 -14.8694 6.79101e-05 1 
7606 1 -9.06749 20.3308 -12.7798 0.000253886 1 
7607 1 -7.5071 22.725 -12.6839 0.000293149 1 
7608 1 -6.25514 20.1905 -12.2577 0.000337802 1 
7609 1 -4.69509 22.5841 -12.1607 0.000366205 1 
7610 1 -6.5719 22.0243 -10.063 0.00130306 1 
7611 1 -5.01142 24.4093 -9.97208 0.00194985 1 
7612 1 -3.75996 21.8841 -9.53888 0.00172087 1 
7613 1 -2.19998 24.2683 -9.44449 0.00255008 1 
7614 1 -4.08508 23.7032 -7.33171 0.010587 1 
7615 1 -2.51636 26.0797 -7.2685 0.0132478 1 
7616 1 -1.27507 23.5658 -6.79826 0.0105383 1 
7617 1 -1.61589 25.3644 -4.59196 0.106636 1 
7654 1 27.1808 15.5267 -12.9645 0.000335753 1 
7655 1 28.7428 17.9309 -12.8765 0.000399086 1 
7656 1 29.9938 15.3852 -12.4436 0.000474969 1 
7657 1 -7.81495 17.7905 -12.3556 0.000575426 1 
7658 1 29.6841 17.229 -10.2778 0.00230999 1 
7659 1 -8.12859 19.6332 -10.171 0.00126456 1 
7660 1 -6.87234 17.0892 -9.75941 0.00340011 1 
7661 1 -5.31556 19.4949 -9.64905 0.00203708 1 
7662 1 -7.18423 18.9432 -7.57229 0.00536211 1 
7663 1 -5.63837 21.3364 -7.4338 0.00736461 1 
7664 1 -4.36795 18.8036 -7.05548 0.00632025 1 
7665 1 -2.8247 21.1977 -6.91038 0.00859525 1 
7666 1 -4.69808 20.6555 -4.82224 0.0180186 1 
7667 1 -3.17257 23.0304 -4.655 0.0544765 1 
7668 1 -1.87857 20.5106 -4.30318 0.042572 1 
7669 1 -2.30051 22.2937 -2.01243 1.219 5 
7670 1 -0.829572 24.7148 -1.77884 5.56741 5 
7696 1 24.0524 10.7271 -13.1205 0.000339673 1 
7697 1 25.6167 13.1239 -13.0426 0.000282195 1 
7698 1 26.8641 10.5852 -12.5973 0.000446039 1 
7699 1 28.4291 12.9817 -12.5203 0.000405223 1 
7700 1 26.5517 12.411 -10.4259 0.00162406 1 
7701 1 28.1207 14.8163 -10.3622 0.00165506 1 
7702 1 29.365 12.2677 -9.90282 0.00238518 1 
7703 1 30.935 14.674 -9.84193 0.0023468 1 
7704 1 29.0614 14.0966 -7.76562 0.00755129 1 
7705 1 30.6324 16.5257 -7.69864 0.0127692 1 
7706 1 31.8768 13.9527 -7.24228 0.0118019 1 
7707 1 -5.92099 16.3863 -7.18533 0.019626 1 
7708 1 31.6014 15.819 -5.1542 0.0802821 1 
7709 1 -6.22428 18.2539 -4.99973 0.0143356 1 
7710 1 -4.94472 15.6819 -4.65056 0.13229 1 
7711 1 -3.39567 18.1071 -4.49003 0.0322284 1 
7712 1 -5.24018 17.5364 -2.46029 0.152899 1 
7713 1 -3.75502 19.8987 -2.24811 0.587165 1 
7714 1 -2.38433 17.3035 -1.9553 1.31777 5 
7715 1 -0.945614 19.6886 -1.71477 5.70548 5 
7730 1 20.9291 5.93869 -13.3023 0.000180505 1 
7731 1 22.4899 8.33366 -13.2075 0.00022173 1 
7732 1 23.7413 5.79865 -12.7798 0.000253902 1 
7733 1 25.3017 8.19291 -12.6839 0.000293168 1 
7734 1 23.4251 7.63275 -10.5871 0.000915627 1 
7735 1 24.9857 10.0197 -10.4956 0.00146424 1 
7736 1 26.2368 7.49216 -10.063 0.00130304 1 
7737 1 27.7973 9.87722 -9.97208 0.00194981 1 
7738 1 25.9134 9.31351 -7.85903 0.00754807 1 
7739 1 27.4809 11.6914 -7.79982 0.00821013 1 
7740 1 28.7237 9.17112 -7.33171 0.0105869 1 
7741 1 30.2924 11.5476 -7.2685 0.0132476 1 
7742 1 28.391 10.9695 -5.14564 0.0875714 1 
7743 1 29.9921 13.3637 -5.16489 0.0499011 1 
7744 1 31.1929 10.8323 -4.59197 0.106638 1 
7745 1 32.7995 13.2219 -4.62237 0.0970676 1 
7746 1 30.8542 12.6686 -2.51497 8.61441 5 
7747 1 -6.74832 15.1453 -2.65236 0.640707 1 
7748 1 33.5962 12.5585 -1.89907 7.82672 5 
7749 1 -3.91382 15.0085 -2.16772 1.31713 5 
7750 1 -5.5924 14.6275 -0.168504 12.4653 5 
7753 1 17.8066 1.13608 -13.4852 0.000233 1 
7754 1 19.3684 3.53918 -13.3974 0.000275849 1 
7755 1 20.6191 0.994577 -12.9645 0.000335732 1 
7756 1 22.181 3.39878 -12.8765 0.000399059 1 
7757 1 20.309 2.83693 -10.7963 0.00161097 1 
7758 1 21.8676 5.23996 -10.6926 0.00091087 1 
7759 1 23.1223 2.69693 -10.2778 0.00231003 1 
7760 1 24.6802 5.1011 -10.171 0.00126455 1 
7761 1 22.8101 4.54793 -8.09101 0.00461884 1 
7762 1 24.3588 6.93953 -7.9624 0.00369583 1 
7763 1 25.6245 4.41106 -7.57229 0.00536217 1 
7764 1 27.1704 6.80432 -7.4338 0.00736481 1 
7765 1 25.2934 6.26152 -5.34056 0.012878 1 
7766 1 26.8248 8.63841 -5.18461 0.0433359 1 
7767 1 28.1107 6.12338 -4.82224 0.0180181 1 
7768 1 29.6362 8.49829 -4.655 0.0544764 1 
7769 1 27.7185 7.93802 -2.55071 0.279118 1 
7770 1 29.2169 10.3383 -2.352 6.0066 5 
7771 1 30.5082 7.76162 -2.01243 1.219 5 
7772 1 31.9792 10.1827 -1.77884 5.56739 5 
7773 1 21.2552 2.13251 -8.21195 0.00862696 1 
7774 1 24.0706 1.99359 -7.69864 0.0127691 1 
7775 1 22.2166 1.41968 -5.65774 0.0478301 1 
7776 1 23.7645 3.85474 -5.51379 0.012294 1 
7777 1 25.0396 1.28685 -5.1542 0.0802914 1 
7778 1 26.5845 3.72177 -4.99973 0.014336 1 
7779 1 24.7419 3.15111 -2.96495 0.0415724 1 
7780 1 26.2296 5.55791 -2.75386 0.052597 1 
7781 1 27.5686 3.00429 -2.46029 0.152903 1 
7782 1 29.0537 5.36659 -2.24811 0.587164 1 
7783 1 23.2305 0.721213 -3.15011 0.381181 1 
7784 1 26.0604 0.613201 -2.65236 0.640768 1 
7785 1 25.7786 2.49441 -0.412793 6.48153 2 
8211 1 -2.19459 39.7913 -13.1205 0.000339679 1 
8212 1 -0.630334 42.1881 -13.0426 0.000282184 1 
8269 1 -5.31794 35.0029 -13.3023 0.000180501 1 
8270 1 -3.75707 37.3979 -13.2075 0.000221735 1 
8271 1 -2.50574 34.8629 -12.7798 0.000253896 1 
8272 1 -0.945346 37.2571 -12.6839 0.000293168 1 
8273 1 -2.82186 36.697 -10.5871 0.000915623 1 
8274 1 -1.26126 39.0839 -10.4956 0.00146424 1 
8327 1 -8.44044 30.2003 -13.4852 0.000233006 1 
8328 1 -6.87858 32.6034 -13.3974 0.000275854 1 
8329 1 -5.62793 30.0588 -12.9645 0.000335746 1 
8330 1 -4.06598 32.463 -12.8765 0.000399069 1 
8331 1 -5.93803 31.9011 -10.7963 0.00161097 1 
8332 1 -4.37943 34.3042 -10.6926 0.000910863 1 
8333 1 -3.12466 31.7611 -10.2778 0.00230998 1 
8334 1 -1.56684 34.1653 -10.171 0.00126455 1 
8335 1 -3.43695 33.6121 -8.09101 0.00461878 1 
8336 1 -1.88825 36.0038 -7.9624 0.00369594 1 
8337 1 -0.622483 33.4753 -7.57229 0.00536216 1 
8338 1 -0.95363 35.3257 -5.34056 0.0128778 1 
8386 1 27.8027 25.4006 -13.6445 0.000249144 1 
8387 1 -10.0038 27.7981 -13.5647 0.000199996 1 
8388 1 -8.75634 25.2592 -13.1205 0.00033967 1 
8389 1 -7.19208 27.656 -13.0426 0.000282194 1 
8390 1 -9.06789 27.0866 -10.9475 0.00123366 1 
8391 1 -7.501 29.491 -10.8809 0.00120228 1 
8392 1 -6.25707 26.9431 -10.4259 0.00162406 1 
8393 1 -4.68807 29.3484 -10.3622 0.00165514 1 
8394 1 -6.56195 28.7723 -8.28119 0.00586667 1 
8395 1 -4.99178 31.1967 -8.21195 0.00862659 1 
8396 1 -3.74731 28.6287 -7.76563 0.00755152 1 
8397 1 -2.17637 31.0578 -7.69863 0.0127692 1 
8398 1 -4.03038 30.4839 -5.65774 0.0478324 1 
8399 1 -2.48249 32.919 -5.51379 0.012294 1 
8400 1 -1.20739 30.3511 -5.1542 0.0802898 1 
8401 1 -1.50514 32.2153 -2.96495 0.041572 1 
8444 1 24.6786 20.6109 -13.8248 0.000123398 1 
8445 1 26.2399 23.0062 -13.7314 0.0001606 1 
8446 1 27.4908 20.4708 -13.3023 0.000180499 1 
8447 1 -10.3188 22.8658 -13.2075 0.000221721 1 
8448 1 27.1756 22.3044 -11.1118 0.000668372 1 
8449 1 -10.6335 24.6935 -11.0208 0.00114544 1 
8450 1 -9.38361 22.1649 -10.5871 0.000915641 1 
8451 1 -7.82301 24.5518 -10.4956 0.00146427 1 
8452 1 -9.70517 23.989 -8.38452 0.00439598 1 
8453 1 -8.13926 26.3694 -8.31765 0.00641248 1 
8454 1 -6.89536 23.8456 -7.85903 0.00754803 1 
8455 1 -5.32789 26.2235 -7.79982 0.00821004 1 
8456 1 -7.226 25.6465 -5.66801 0.0531501 1 
8457 1 -5.62847 28.0355 -5.68215 0.0343811 1 
8458 1 -4.41774 25.5016 -5.14564 0.0875754 1 
8459 1 -2.81662 27.8958 -5.16489 0.049896 1 
8460 1 -4.73982 27.3063 -3.05045 8.61962 5 
8461 1 -3.01649 29.7854 -3.15011 0.381186 1 
8462 1 -1.95456 27.2007 -2.51498 8.61438 5 
8463 1 -1.88077 29.1169 -0.667837 12.8825 5 
8464 1 -0.468445 31.5586 -0.412794 6.48152 2 
8500 1 21.5561 15.8096 -14.0065 0.000169509 1 
8501 1 23.1177 18.2118 -13.9185 0.00019459 1 
8502 1 24.3683 15.6682 -13.4852 0.000233013 1 
8503 1 25.9302 18.0713 -13.3974 0.000275846 1 
8504 1 24.0578 17.5095 -11.3152 0.00117163 1 
8505 1 25.6168 19.911 -11.2143 0.000640341 1 
8506 1 26.8707 17.369 -10.7963 0.00161094 1 
8507 1 28.4293 19.7721 -10.6926 0.000910885 1 
8508 1 26.5584 19.2172 -8.61031 0.00361796 1 
8509 1 28.1099 21.6088 -8.48774 0.00268141 1 
8510 1 29.3718 19.08 -8.09101 0.00461881 1 
8511 1 -8.45 21.4716 -7.9624 0.0036959 1 
8512 1 29.0441 20.9269 -5.86129 0.0131383 1 
8513 1 -8.78882 23.2965 -5.72846 0.0156408 1 
8514 1 -7.51538 20.7936 -5.34056 0.0128779 1 
8515 1 -5.98398 23.1705 -5.18461 0.0433375 1 
8516 1 -7.89498 22.6215 -3.06333 0.070948 1 
8517 1 -6.37023 25.0015 -2.88582 0.968587 5 
8518 1 -5.09022 22.4701 -2.55071 0.27912 1 
8519 1 -3.59181 24.8704 -2.35199 6.00657 5 
8546 1 18.4291 11.0098 -14.1687 0.000176135 1 
8547 1 19.993 13.4077 -14.0878 0.00014664 1 
8548 1 21.2409 10.8685 -13.6445 0.000249147 1 
8549 1 22.8049 13.266 -13.5647 0.000199989 1 
8550 1 20.9303 12.6971 -11.4718 0.000950317 1 
8551 1 22.496 15.1014 -11.4004 0.000876362 1 
8552 1 23.7409 12.5545 -10.9475 0.00123366 1 
8553 1 25.3078 14.9589 -10.8809 0.00120227 1 
8554 1 23.4375 14.3854 -8.79658 0.00454762 1 
8555 1 25.003 16.8058 -8.7258 0.00666293 1 
8556 1 26.2468 14.2402 -8.28119 0.0058668 1 
8557 1 27.817 16.6646 -8.21195 0.00862625 1 
8558 1 25.9624 16.0923 -6.16326 0.0367117 1 
8559 1 27.5121 18.5221 -6.02873 0.0110828 1 
8560 1 28.7784 15.9518 -5.65774 0.0478347 1 
8561 1 30.3263 18.3869 -5.51379 0.0122944 1 
8562 1 28.4855 17.8055 -3.47387 0.0615977 1 
8563 1 29.9796 20.2254 -3.26315 0.0479279 1 
8564 1 31.3036 17.6832 -2.96495 0.0415715 1 
8565 1 -6.57917 20.09 -2.75386 0.0525964 1 
8566 1 -8.4426 19.4782 -0.66785 6.69829 2 
8581 1 15.3045 6.21911 -14.3471 8.70612e-05 1 
8582 1 16.8661 8.61471 -14.2552 0.000115834 1 
8583 1 18.1168 6.07876 -13.8248 0.000123401 1 
8584 1 19.6782 8.47414 -13.7314 0.000160615 1 
8585 1 17.8022 7.91182 -11.6366 0.000486995 1 
8586 1 19.3645 10.3025 -11.5472 0.000846886 1 
8587 1 20.6138 7.77229 -11.1118 0.000668371 1 
8588 1 22.1753 10.1614 -11.0208 0.00114542 1 
8589 1 20.2952 9.59666 -8.91416 0.0033124 1 
8590 1 21.8627 11.9812 -8.8442 0.00614407 1 
8591 1 23.1036 9.45689 -8.38452 0.00439603 1 
8592 1 24.6695 11.8373 -8.31765 0.00641263 1 
8593 1 22.7766 11.2625 -6.18536 0.0342868 1 
8594 1 24.374 13.6509 -6.1821 0.0292812 1 
8595 1 25.5828 11.1144 -5.66801 0.0531504 1 
8596 1 27.1803 13.5034 -5.68215 0.034382 1 
8597 1 25.2654 12.8891 -3.53738 1.56754 5 
8598 1 26.9577 15.3657 -3.64017 0.26331 1 
8599 1 28.0689 12.7742 -3.05046 8.61958 5 
8600 1 29.7923 15.2533 -3.15012 0.381232 1 
8601 1 28.0781 14.6251 -1.16734 12.4801 5 
8602 1 29.5154 17.0254 -0.922925 6.49278 2 
8603 1 30.928 14.5848 -0.667862 12.8825 5 
8604 1 -7.03019 17.0265 -0.412795 6.48148 2 
8607 1 12.1818 1.41874 -14.5283 0.000129332 1 
8608 1 13.7435 3.8204 -14.4399 0.000140295 1 
8609 1 14.9943 1.27745 -14.0065 0.000169503 1 
8610 1 16.5559 3.67972 -13.9185 0.000194588 1 
8611 1 14.6832 3.11804 -11.8349 0.000856797 1 
8612 1 16.2425 5.51833 -11.7359 0.000458163 1 
8613 1 17.4961 2.97739 -11.3152 0.00117165 1 
8614 1 19.0551 5.37888 -11.2143 0.000640319 1 
8615 1 17.1832 4.82346 -9.12941 0.00266071 1 
8616 1 18.7373 7.21368 -9.01375 0.00203925 1 
8617 1 19.9967 4.68511 -8.61031 0.003618 1 
8618 1 21.5482 7.0767 -8.48774 0.00268145 1 
8619 1 19.6729 6.52893 -6.38575 0.0107404 1 
8620 1 21.2157 8.89903 -6.26119 0.0114306 1 
8621 1 22.4823 6.39479 -5.86129 0.013138 1 
8622 1 24.0199 8.76436 -5.72846 0.0156409 1 
8623 1 22.1154 8.22502 -3.58183 0.0893349 1 
8624 1 23.6519 10.5723 -3.46324 0.181093 1 
8625 1 24.9138 8.08936 -3.06333 0.0709483 1 
8626 1 26.4385 10.4694 -2.88582 0.968603 5 
8627 1 13.1216 0.711456 -11.9221 0.000665815 1 
8628 1 15.9342 0.569256 -11.4004 0.000876442 1 
8629 1 15.6273 2.41586 -9.24178 0.00501112 1 
8630 1 18.4413 2.27373 -8.7258 0.00666255 1 
8631 1 16.5833 1.7082 -6.67281 0.0301248 1 
8632 1 18.1343 4.12984 -6.54196 0.00867743 1 
8633 1 19.4006 1.56016 -6.16326 0.0367116 1 
8634 1 20.9503 3.99004 -6.02873 0.0110833 1 
8635 1 19.1142 3.42255 -3.98536 0.0648058 1 
8636 1 20.6164 5.83179 -3.78185 0.0621484 1 
8637 1 21.9238 3.27344 -3.47387 0.0615973 1 
8638 1 23.4179 5.69324 -3.26315 0.0479272 1 
8639 1 21.5455 4.99444 -1.18095 6.28118 2 
8640 1 22.9594 7.44818 -0.927475 6.35777 2 
8641 1 24.3661 4.94606 -0.667851 6.6983 2 
8642 1 17.5759 0.990636 -4.14286 0.21155 1 
8643 1 20.396 0.833605 -3.64016 0.263302 1 
8644 1 20.1259 2.58682 -1.42843 5.76244 5 
8645 1 22.9536 2.49325 -0.922926 6.4927 2 
8968 1 -7.81787 40.074 -14.1687 0.000176137 1 
8969 1 -6.25401 42.4719 -14.0878 0.000146635 1 
8970 1 -5.00606 39.9327 -13.6445 0.000249149 1 
8971 1 -3.4421 42.3302 -13.5647 0.000199983 1 
8972 1 -5.31669 41.7614 -11.4718 0.000950316 1 
8973 1 -2.50614 41.6187 -10.9475 0.00123366 1 
8974 1 18.746 0.426821 -10.8809 0.00120232 1 
8975 1 -2.80949 43.4496 -8.79658 0.00454746 1 
9024 1 -10.9425 35.2833 -14.3471 8.70587e-05 1 
9025 1 -9.38086 37.6789 -14.2552 0.000115829 1 
9026 1 -8.13018 35.143 -13.8248 0.000123399 1 
9027 1 -6.56883 37.5384 -13.7314 0.000160612 1 
9028 1 -8.44481 36.976 -11.6366 0.000486997 1 
9029 1 -6.88248 39.3667 -11.5472 0.000846875 1 
9030 1 -5.63315 36.8365 -11.1118 0.000668374 1 
9031 1 -4.07174 39.2256 -11.0208 0.0011454 1 
9032 1 -5.95177 38.6609 -8.91416 0.00331243 1 
9033 1 -4.38434 41.0455 -8.8442 0.006144 1 
9034 1 -3.14342 38.5211 -8.38452 0.00439596 1 
9035 1 -1.57751 40.9015 -8.31765 0.00641243 1 
9036 1 -3.47036 40.3268 -6.18536 0.0342884 1 
9037 1 -1.87295 42.7152 -6.1821 0.0292845 1 
9038 1 -0.664248 40.1786 -5.66801 0.0531502 1 
9039 1 -0.981559 41.9533 -3.53738 1.56754 5 
9083 1 25.3053 30.483 -14.5283 0.000129334 1 
9084 1 -12.5035 32.8846 -14.4399 0.0001403 1 
9085 1 -11.2527 30.3417 -14.0065 0.000169512 1 
9086 1 -9.69107 32.7439 -13.9185 0.000194593 1 
9087 1 -11.5638 32.1823 -11.8349 0.000856777 1 
9088 1 -10.0045 34.5826 -11.7359 0.000458186 1 
9089 1 -8.75095 32.0416 -11.3152 0.00117163 1 
9090 1 -7.19191 34.4431 -11.2143 0.000640328 1 
9091 1 -9.06379 33.8877 -9.12941 0.00266073 1 
9092 1 -7.50973 36.2779 -9.01375 0.00203925 1 
9093 1 -6.25031 33.7493 -8.61031 0.00361797 1 
9094 1 -4.69881 36.1409 -8.48774 0.00268151 1 
9095 1 -6.57407 35.5931 -6.38575 0.0107406 1 
9096 1 -5.03132 37.9633 -6.26119 0.0114301 1 
9097 1 -3.76465 35.459 -5.86129 0.0131384 1 
9098 1 -2.22707 37.8286 -5.72846 0.0156403 1 
9099 1 -4.13156 37.2892 -3.58183 0.0893342 1 
9100 1 -2.59512 39.6366 -3.46324 0.181095 1 
9101 1 -1.33323 37.1536 -3.06333 0.0709484 1 
9140 1 22.1786 25.6833 -14.6924 0.000123894 1 
9141 1 23.7424 28.0815 -14.6108 9.97877e-05 1 
9142 1 24.9909 25.5419 -14.1687 0.000176135 1 
9143 1 26.5547 27.9398 -14.0878 0.000146648 1 
9144 1 24.6802 27.3716 -11.9967 0.000619942 1 
9145 1 -13.1254 29.7757 -11.9221 0.000665769 1 
9146 1 -11.8784 27.2292 -11.4718 0.000950316 1 
9147 1 -10.3128 29.6335 -11.4004 0.00087637 1 
9148 1 -12.1837 29.0631 -9.32013 0.00333737 1 
9149 1 -10.6197 31.4801 -9.24178 0.0050111 1 
9150 1 -9.37124 28.9175 -8.79658 0.00454763 1 
9151 1 -7.80574 31.3379 -8.7258 0.00666269 1 
9152 1 -9.66374 30.7724 -6.67281 0.0301246 1 
9153 1 -8.11269 33.1941 -6.54196 0.00867747 1 
9154 1 -6.84638 30.6244 -6.16326 0.0367111 1 
9155 1 -5.29668 33.0543 -6.02873 0.0110829 1 
9156 1 -7.13276 32.4868 -3.98536 0.0648055 1 
9157 1 -5.63061 34.896 -3.78185 0.0621484 1 
9158 1 -4.32323 32.3377 -3.47387 0.0615979 1 
9159 1 -2.82914 34.7575 -3.26315 0.0479271 1 
9160 1 -4.70148 34.0587 -1.18095 6.28118 2 
9161 1 -3.28765 36.5124 -0.927475 6.35777 2 
9162 1 -1.88086 34.0103 -0.667851 6.69828 2 
9195 1 19.054 20.8919 -14.8694 6.79079e-05 1 
9196 1 20.6157 23.2877 -14.7784 8.82271e-05 1 
9197 1 21.8663 20.7512 -14.3471 8.70642e-05 1 
9198 1 23.4279 23.1468 -14.2552 0.000115822 1 
9199 1 21.5519 22.5841 -12.1607 0.0003662 1 
9200 1 23.1146 24.9757 -12.0732 0.000611175 1 
9201 1 24.3639 22.4439 -11.6366 0.000486983 1 
9202 1 25.9263 24.8346 -11.5472 0.000846884 1 
9203 1 24.047 24.2683 -9.44449 0.00255014 1 
9204 1 25.6154 26.6568 -9.37431 0.00391031 1 
9205 1 26.857 24.1288 -8.91416 0.00331244 1 
9206 1 -10.9461 26.5133 -8.8442 0.00614405 1 
9207 1 26.5373 25.9381 -6.72645 0.0229305 1 
9208 1 -11.2441 28.3388 -6.71668 0.0189141 1 
9209 1 -10.0321 25.7946 -6.18536 0.0342878 1 
9210 1 -8.4347 28.183 -6.1821 0.0292828 1 
9211 1 -10.3423 27.6026 -4.08266 0.195738 1 
9212 1 -8.6711 30.0549 -4.14286 0.211538 1 
9213 1 -7.54331 27.4212 -3.53738 1.56753 5 
9214 1 -5.85105 29.8978 -3.64017 0.263301 1 
9215 1 -7.58407 29.2784 -1.65609 5.88761 5 
9216 1 -6.12114 31.651 -1.42843 5.76244 5 
9217 1 -4.73065 29.1572 -1.16739 12.4804 5 
9218 1 -3.29338 31.5575 -0.922926 6.49275 2 
9248 1 17.4928 18.4933 -14.9616 0.000102362 1 
9249 1 18.7436 15.9509 -14.5283 0.000129331 1 
9250 1 20.3053 18.3525 -14.4399 0.0001403 1 
9251 1 18.432 17.7905 -12.3556 0.000575444 1 
9252 1 19.9919 20.1905 -12.2577 0.000337807 1 
9253 1 21.2449 17.6502 -11.8349 0.000856766 1 
9254 1 22.8043 20.0504 -11.7359 0.000458189 1 
9255 1 20.9314 19.4949 -9.64905 0.00203708 1 
9256 1 22.487 21.8841 -9.53888 0.00172076 1 
9257 1 23.745 19.3556 -9.12941 0.00266078 1 
9258 1 25.299 21.7458 -9.01375 0.00203916 1 
9259 1 23.4223 21.1977 -6.91038 0.00859505 1 
9260 1 24.9719 23.5658 -6.79826 0.0105388 1 
9261 1 26.2347 21.061 -6.38575 0.0107404 1 
9262 1 27.7774 23.4311 -6.26119 0.0114305 1 
9263 1 25.8791 22.8913 -4.11704 0.0737593 1 
9264 1 27.4214 25.2348 -4.01962 0.129426 1 
9265 1 28.6772 22.7571 -3.58183 0.0893347 1 
9266 1 -9.15687 25.1044 -3.46324 0.181093 1 
9267 1 28.1688 24.5628 -1.2042 5.80476 5 
9268 1 -9.62537 26.9895 -1.3244 8.61598 5 
9294 1 15.6169 11.1511 -14.6924 0.000123893 1 
9295 1 17.1806 13.5494 -14.6108 9.97779e-05 1 
9296 1 15.3056 12.9817 -12.5203 0.000405214 1 
9297 1 16.8703 15.3852 -12.4436 0.000474979 1 
9298 1 18.1185 12.8395 -11.9967 0.000619931 1 
9299 1 19.6834 15.2436 -11.9221 0.000665782 1 
9300 1 17.8115 14.674 -9.84193 0.00234672 1 
9301 1 19.3747 17.0892 -9.75941 0.00339999 1 
9302 1 20.625 14.531 -9.32013 0.00333738 1 
9303 1 22.189 16.948 -9.24178 0.00501106 1 
9304 1 20.326 16.3863 -7.18533 0.0196273 1 
9305 1 21.879 18.8036 -7.05548 0.00632028 1 
9306 1 23.145 16.2403 -6.67281 0.0301233 1 
9307 1 24.6961 18.662 -6.54196 0.00867761 1 
9308 1 22.8513 18.1071 -4.49003 0.0322283 1 
9309 1 24.3684 20.5106 -4.30318 0.0425718 1 
9310 1 25.676 17.9547 -3.98536 0.0648066 1 
9311 1 27.1781 20.3639 -3.78185 0.0621477 1 
9312 1 25.3014 19.6886 -1.71477 5.70547 5 
9313 1 26.7317 22.1063 -1.46639 5.7388 5 
9314 1 28.1073 19.5266 -1.18095 6.28118 2 
9315 1 -9.8494 21.9803 -0.927475 6.35777 2 
9332 1 12.4923 6.35976 -14.8694 6.79036e-05 1 
9333 1 14.054 8.75561 -14.7784 8.8235e-05 1 
9334 1 12.1782 8.19291 -12.6839 0.000293167 1 
9335 1 13.7406 10.5852 -12.5973 0.000446048 1 
9336 1 14.9902 8.05201 -12.1607 0.000366227 1 
9337 1 16.5528 10.4436 -12.0732 0.00061116 1 
9338 1 14.6738 9.87722 -9.97208 0.00194979 1 
9339 1 16.2415 12.2677 -9.90282 0.00238518 1 
9340 1 17.4853 9.7362 -9.44449 0.00255007 1 
9341 1 19.0537 12.1247 -9.37431 0.00391022 1 
9342 1 17.1689 11.5476 -7.2685 0.0132477 1 
9343 1 18.7533 13.9527 -7.24228 0.0118025 1 
9344 1 19.9755 11.406 -6.72645 0.0229309 1 
9345 1 21.5646 13.8067 -6.71668 0.0189141 1 
9346 1 19.676 13.2219 -4.62237 0.0970683 1 
9347 1 21.3023 15.6819 -4.65056 0.132287 1 
9348 1 22.4665 13.0705 -4.08266 0.195735 1 
9349 1 24.1376 15.5227 -4.14285 0.211521 1 
9350 1 22.3332 15.0085 -2.16774 1.31731 5 
9351 1 23.8627 17.3035 -1.9553 1.31781 5 
9352 1 25.2247 14.7463 -1.65607 5.88746 5 
9353 1 26.6876 17.1189 -1.42842 5.76243 5 
9361 1 10.9311 3.96116 -14.9616 0.00010236 1 
9362 1 9.05752 3.39878 -12.8765 0.000399082 1 
9363 1 10.6178 5.79865 -12.7798 0.000253879 1 
9364 1 11.8703 3.25838 -12.3556 0.000575431 1 
9365 1 13.4301 5.65838 -12.2577 0.000337796 1 
9366 1 11.5567 5.1011 -10.171 0.00126452 1 
9367 1 13.1133 7.49216 -10.063 0.00130313 1 
9368 1 14.3697 4.96277 -9.64905 0.00203704 1 
9369 1 15.9253 7.35203 -9.53888 0.00172089 1 
9370 1 14.0469 6.80432 -7.4338 0.00736479 1 
9371 1 15.6002 9.17112 -7.33171 0.010587 1 
9372 1 16.8606 6.66556 -6.91038 0.0085953 1 
9373 1 18.4102 9.03365 -6.79826 0.0105383 1 
9374 1 16.5127 8.49829 -4.655 0.0544768 1 
9375 1 18.0694 10.8323 -4.59197 0.106637 1 
9376 1 19.3173 8.35923 -4.11704 0.0737594 1 
9377 1 20.8596 10.7027 -4.01962 0.129426 1 
9378 1 18.8557 10.1827 -1.77885 5.56741 5 
9379 1 20.4727 12.5585 -1.89907 7.82675 5 
9380 1 21.6071 10.0307 -1.2042 5.80475 5 
9381 1 23.1834 12.4574 -1.3244 8.61597 5 
9382 1 7.49557 0.994577 -12.9645 0.000335755 1 
9383 1 10.3085 0.853052 -12.4436 0.000474975 1 
9384 1 9.99884 2.69693 -10.2778 0.00230998 1 
9385 1 12.8129 2.55707 -9.75941 0.00340007 1 
9386 1 10.9471 1.99359 -7.69863 0.012769 1 
9387 1 12.501 4.41106 -7.57229 0.00536207 1 
9388 1 13.7643 1.8542 -7.18533 0.019626 1 
9389 1 15.3173 4.27146 -7.05548 0.00632022 1 
9390 1 13.461 3.72177 -4.99973 0.0143353 1 
9391 1 14.9872 6.12338 -4.82224 0.0180189 1 
9392 1 16.2896 3.57502 -4.49003 0.032228 1 
9393 1 17.8067 5.9785 -4.30318 0.0425718 1 
9394 1 15.9302 5.36659 -2.24811 0.587165 1 
9395 1 17.3847 7.76162 -2.01243 1.21899 5 
9396 1 18.7396 5.15652 -1.71477 5.70547 5 
9397 1 20.17 7.57423 -1.46639 5.73879 5 
9398 1 11.9161 1.28685 -5.1542 0.0802864 1 
9399 1 14.7405 1.14978 -4.65056 0.132291 1 
9400 1 12.9369 0.613199 -2.65235 0.640697 1 
9401 1 14.4451 3.00429 -2.46029 0.152898 1 
9402 1 17.3009 2.77137 -1.9553 1.31778 5 
9637 1 -10.6301 40.2154 -14.6924 0.000123891 1 
9638 1 -9.06638 42.6136 -14.6108 9.97775e-05 1 
9639 1 -10.9414 42.0459 -12.5203 0.000405217 1 
9640 1 -8.12852 41.9037 -11.9967 0.000619934 1 
9641 1 11.2497 0.141895 -9.84193 0.00234678 1 
9642 1 -5.62199 43.5952 -9.32013 0.00333725 1 
9684 1 -13.7547 35.424 -14.8694 6.79067e-05 1 
9685 1 -12.193 37.8198 -14.7784 8.8229e-05 1 
9686 1 -14.0688 37.2571 -12.6839 0.000293162 1 
9687 1 -12.5064 39.6494 -12.5973 0.000446052 1 
9688 1 -11.2568 37.1162 -12.1607 0.000366212 1 
9689 1 -9.69416 39.5078 -12.0732 0.000611167 1 
9690 1 -11.5732 38.9414 -9.97208 0.00194984 1 
9691 1 -10.0055 41.3319 -9.90282 0.0023852 1 
9692 1 -8.76174 38.8004 -9.44449 0.00255008 1 
9693 1 -7.19334 41.189 -9.37431 0.00391024 1 
9694 1 -9.07811 40.6118 -7.2685 0.0132477 1 