ITEM: TIMESTEP
0
ITEM: NUMBER OF ATOMS
20121
ITEM: BOX BOUNDS xy xz yz pp pp ss
0.0000000000000000e+00 1.1610894679400000e+02 1.8068827455000001e+01
0.0000000000000000e+00 1.1455814014900000e+02 0.0000000000000000e+00
-1.0061120984922090e+02 1.0896014583629814e+02 0.0000000000000000e+00
ITEM: ATOMS id type x y z c_csym c_cna 
7633 1 11.2143 1.14715 -14.8878 0.000260517 1 
7639 1 2.85534 4.48117 -13.8987 0.00094047 1 
7640 1 5.44633 3.92145 -14.9782 0.000543827 1 
7641 1 3.69867 1.77487 -14.2951 0.000992922 1 
7643 1 6.03687 2.2551 -12.7001 0.00206839 1 
7644 1 8.62324 1.69894 -13.7942 0.000707223 1 
7645 1 9.20431 0.0372998 -11.5137 0.00308895 1 
7646 1 98.3025 5.04389 -12.8294 0.000937084 1 
7647 1 1.10973 2.33471 -13.2299 0.00103255 1 
7648 1 0.864166 3.38537 -10.5668 0.00284277 1 
7649 1 3.45268 2.81847 -11.6213 0.00333506 1 
7650 1 1.71103 0.675013 -10.9693 0.00254448 1 
7651 1 4.29345 0.113696 -12.0218 0.002668 1 
7652 1 4.05473 1.16162 -9.33096 0.00805988 1 
7653 1 6.62703 0.595177 -10.4054 0.00659068 1 
7654 1 1.4738 1.73298 -8.30285 0.00609047 1 
7655 1 2.08671 0.0856615 -6.04317 0.0147394 1 
76147 2 39.9003 28.4245 4.10899 0.013436 1 
71196 2 33.6911 11.6162 4.14786 0.146719 1 
9560 1 21.0938 0.996802 -13.8933 0.000543508 1 
9561 1 23.6843 0.441976 -14.9717 0.000532718 1 
9575 1 9.54114 6.55438 -14.0997 0.000724992 1 
9577 1 10.3782 3.84822 -14.4909 0.000406131 1 
9579 1 12.7211 4.32956 -12.9214 0.000561686 1 
9580 1 15.3143 3.78045 -14.004 0.000194659 1 
9581 1 13.5562 1.62922 -13.3153 0.000363919 1 
9582 1 16.1534 1.07673 -14.3989 0.000192295 1 
9583 1 15.9011 2.10907 -11.7424 0.000472761 1 
9584 1 18.4992 1.55414 -12.8194 0.000415124 1 
9587 1 99.2005 9.90186 -13.1056 0.00083072 1 
9588 1 3.75873 9.34149 -14.1932 0.000606189 1 
9589 1 2.00793 7.19029 -13.5048 0.000841344 1 
9590 1 4.60344 6.62901 -14.5868 0.000545213 1 
9591 1 4.34525 7.66494 -11.9384 0.00224242 1 
9592 1 6.94514 7.10566 -13.0218 0.00160963 1 
9593 1 5.19394 4.95598 -12.3166 0.00220669 1 
9594 1 7.78628 4.39828 -13.4038 0.00115418 1 
9595 1 7.53488 5.42129 -10.755 0.00697235 1 
9596 1 10.1292 4.87396 -11.838 0.00233956 1 
9597 1 8.37288 2.72605 -11.1188 0.00328641 1 
9598 1 10.9617 2.1776 -12.2219 0.00108882 1 
9599 1 10.7104 3.19638 -9.55433 0.00569889 1 
9600 1 13.3033 2.65727 -10.6545 0.00123085 1 
9601 1 11.5359 0.515194 -9.94405 0.00453677 1 
9603 1 13.8759 0.994374 -8.38569 0.00530222 1 
9604 1 16.4855 0.444419 -9.47764 0.00176403 1 
9605 1 1.74645 8.23342 -10.8454 0.00337286 1 
9606 1 98.0485 6.09353 -10.1664 0.00274719 1 
9607 1 2.60165 5.52411 -11.234 0.00333569 1 
9608 1 2.34243 6.57401 -8.56324 0.0121131 1 
9609 1 4.93569 5.99021 -9.65969 0.0104304 1 
9610 1 3.20694 3.86829 -8.93833 0.0108762 1 
9611 1 5.78831 3.29127 -10.0156 0.0079788 1 
9612 1 5.53892 4.33991 -7.3203 0.031751 1 
9613 1 8.12274 3.74444 -8.44211 0.0139622 1 
9614 1 6.3838 1.63744 -7.68597 0.0213251 1 
9615 1 8.95239 1.06465 -8.80256 0.0138313 1 
9616 1 8.70286 2.0905 -6.06589 0.0571639 1 
9617 1 11.2747 1.53262 -7.24223 0.0197487 1 
9618 1 97.7924 7.14576 -7.49084 0.00862828 1 
9619 1 98.6576 4.44412 -7.89849 0.00766534 1 
9620 1 98.4231 5.51572 -5.20991 0.0356387 1 
9621 1 2.95757 4.93749 -6.2454 0.0375858 1 
9622 1 1.23904 2.80896 -5.63494 0.0160655 1 
9623 1 3.81796 2.22342 -6.62675 0.0220369 1 
9624 1 3.58904 3.32951 -3.91191 0.0988353 1 
9625 1 6.14457 2.68726 -4.95027 0.106127 1 
9626 1 4.43482 0.578637 -4.30533 0.0678013 1 
120727 2 97.1942 55.9614 1.6923 6.50354 5 
9628 1 6.77215 1.07017 -2.54807 2.39387 5 
9629 1 9.25018 0.410204 -3.71164 0.499154 1 
9630 1 0.978235 3.8948 -2.96764 0.053715 1 
9631 1 1.83926 1.18084 -3.39408 0.0238554 1 
9632 1 1.52996 2.27308 -0.714629 6.97787 2 
9633 1 4.18612 1.75102 -1.60387 6.76314 2 
9634 1 97.8391 0.0370568 -0.271713 6.83444 2 
11691 1 27.7756 3.08129 -14.1051 0.000569439 1 
11693 1 28.6097 0.375469 -14.487 0.000427839 1 
11694 1 30.9461 0.864906 -12.9222 0.000559655 1 
11695 1 33.5335 0.327665 -14.0171 0.000245773 1 
11718 1 16.227 8.65182 -14.2877 0.000260295 1 
11720 1 17.0675 5.937 -14.6898 0.000186936 1 
11722 1 19.4085 6.41765 -13.1245 0.000488827 1 
11723 1 22.0017 5.86179 -14.2073 0.00045646 1 
11724 1 20.2518 3.70359 -13.5112 0.000474701 1 
11725 1 22.8444 3.14855 -14.5899 0.000471342 1 
11726 1 22.5945 4.17701 -11.9456 0.00139119 1 
11727 1 25.1862 3.626 -13.0243 0.00104089 1 
11728 1 23.4358 1.46794 -12.3132 0.00135224 1 
11729 1 26.0232 0.918627 -13.397 0.000865512 1 
11730 1 25.7758 1.93945 -10.7445 0.00285095 1 
11731 1 28.3611 1.40057 -11.8314 0.0013962 1 
11738 1 4.67583 14.2147 -14.4625 0.000512914 1 
11740 1 5.51604 11.4999 -14.8733 0.000501384 1 
11742 1 7.86304 11.9867 -13.3043 0.000979869 1 
11743 1 10.4589 11.4329 -14.3725 0.000355114 1 
11744 1 8.70237 9.26823 -13.7069 0.000947425 1 
11745 1 11.2963 8.71721 -14.7792 0.000285369 1 
11746 1 11.0503 9.75486 -12.1324 0.00100715 1 
11747 1 13.6388 9.20454 -13.2045 0.000409726 1 
11748 1 11.8864 7.03763 -12.5304 0.000863939 1 
11749 1 14.4763 6.48944 -13.6079 0.000275974 1 
11750 1 14.2308 7.52309 -10.959 0.000889175 1 
11751 1 16.818 6.97248 -12.04 0.000511919 1 
11752 1 15.0652 4.81113 -11.3526 0.000658049 1 
11753 1 17.658 4.25963 -12.433 0.000404045 1 
11754 1 17.4105 5.28977 -9.78655 0.0011365 1 
11755 1 20.0016 4.73442 -10.867 0.00125321 1 
11756 1 18.2488 2.58401 -10.1665 0.000934556 1 
11757 1 20.8448 2.02466 -11.2374 0.00142643 1 
11758 1 20.5967 3.05258 -8.59055 0.00340831 1 
11759 1 23.1881 2.48923 -9.6629 0.00471576 1 
11760 1 21.4386 0.350906 -8.93983 0.00536907 1 
11761 1 23.7759 0.807931 -7.33746 0.0200232 1 
11762 1 26.3574 0.254029 -8.43592 0.00975826 1 
11763 1 97.779 14.2828 -14.9429 0.000251176 1 
11764 1 100.114 14.7698 -13.3738 0.000646023 1 
11765 1 98.3565 12.6135 -12.6959 0.000831358 1 
11766 1 2.91513 12.0564 -13.7898 0.000666981 1 
11767 1 2.64976 13.0959 -11.141 0.00247342 1 
11768 1 5.25832 12.5414 -12.233 0.00209727 1 
11769 1 3.49579 10.3806 -11.5495 0.00240641 1 
11770 1 6.10144 9.8221 -12.6353 0.00195211 1 
11771 1 5.8417 10.8593 -10.0157 0.00872294 1 
11772 1 8.45316 10.3062 -11.0773 0.00361962 1 
11773 1 6.68931 8.13463 -10.3962 0.00794933 1 
11774 1 9.29308 7.58341 -11.4629 0.00341716 1 
11775 1 9.04772 8.61388 -8.85686 0.0135898 1 
11776 1 11.6446 8.06829 -9.89224 0.00302508 1 
11777 1 9.88471 5.89002 -9.2055 0.0143624 1 
11778 1 12.4751 5.35457 -10.2729 0.00262087 1 
11779 1 12.2365 6.37626 -7.63905 0.0121989 1 
11780 1 14.8216 5.83744 -8.70722 0.0024049 1 
11781 1 13.0515 3.67785 -7.99542 0.00476932 1 
11782 1 15.6499 3.13635 -9.08826 0.00130142 1 
11783 1 15.4054 4.15656 -6.44163 0.0057391 1 
11784 1 18.0036 3.61084 -7.51905 0.00273146 1 
11785 1 16.2295 1.47346 -6.81791 0.00478528 1 
11786 1 18.8395 0.917431 -7.88596 0.00313534 1 
11787 1 18.5957 1.95166 -5.22759 0.0107401 1 
11788 1 21.1898 1.38657 -6.27878 0.0119065 1 
11789 1 98.0888 13.6498 -10.0275 0.00327561 1 
11790 1 98.9345 10.9425 -10.4442 0.00326228 1 
11791 1 98.6625 11.9749 -7.76627 0.0140918 1 
11792 1 3.22434 11.4159 -8.91054 0.00906334 1 
11793 1 1.47838 9.27736 -8.17344 0.0142856 1 
11794 1 4.07856 8.70197 -9.30037 0.00958076 1 
11795 1 3.80278 9.73849 -6.66409 0.0440665 1 
11796 1 6.43061 9.15961 -7.80952 0.0449124 1 
11797 1 4.66693 7.03941 -7.01129 0.0456917 1 
11798 1 7.28193 6.43421 -8.14137 0.0501197 1 
11799 1 7.03482 7.43101 -5.59562 0.415831 1 
11800 1 9.64099 6.90717 -6.62792 0.0940624 1 
11801 1 7.86759 4.76312 -5.76926 0.0795155 1 
11802 1 10.461 4.20453 -6.90097 0.0372581 1 
11803 1 10.1874 5.22022 -4.32051 0.509139 1 
11804 1 12.8046 4.69706 -5.34467 0.034611 1 
11805 1 10.998 2.55349 -4.51784 0.155672 1 
11806 1 13.6079 2.02005 -5.71484 0.0249652 1 
11807 1 13.3286 3.07222 -3.04851 0.247906 1 
11808 1 15.9779 2.49575 -4.15971 0.0349408 1 
11809 1 14.1699 0.342966 -3.51357 0.149081 1 
11810 1 16.6136 0.828841 -1.9396 0.432134 1 
11811 1 19.2004 0.316058 -2.93232 0.174682 1 
11812 1 99.2552 10.3167 -5.4683 0.0809834 1 
11813 1 2.08359 7.6338 -5.86818 0.0555203 1 
11814 1 1.88134 8.69909 -3.11044 0.992248 5 
11815 1 4.42905 8.0839 -4.34198 1.2315 5 
11816 1 2.75703 6.04152 -3.49559 0.365128 1 
11817 1 5.29899 5.4091 -4.63116 0.358863 1 
11818 1 5.10159 6.86854 -1.64634 9.08418 5 
11819 1 7.60311 5.90006 -3.07546 3.95369 5 
11820 1 5.89106 3.94829 -2.13666 6.68831 5 
11821 1 8.41507 3.1642 -3.27699 1.47613 5 
11822 1 7.96519 3.37618 -0.189421 5.41054 5 
11823 1 10.6606 3.70025 -1.80272 3.96595 5 
11824 1 9.12201 0.993521 -0.707115 6.37127 5 
11825 1 11.5846 0.844031 -2.32389 7.37655 5 
11826 1 11.6376 1.9162 0.181583 9.72516 5 
11827 1 14.0769 1.40792 -0.965241 5.69408 5 
11828 1 98.1395 6.5817 -2.52876 0.116217 1 
11829 1 2.35913 7.2351 -0.708044 6.10965 2 
11830 1 6.57712 9.51555 -0.780171 11.6231 5 
11831 1 98.628 4.94315 -0.260948 6.87513 2 
11832 1 3.291 4.52736 -1.16148 6.67697 2 
11833 1 5.21086 3.58128 0.735743 0.653959 1 
11834 1 6.26059 1.08359 0.282974 2.32229 5 
14026 1 34.4573 5.20207 -14.3159 0.000157431 1 
14028 1 35.2909 2.49367 -14.714 0.000184623 1 
14030 1 37.6274 2.9935 -13.1555 0.000453618 1 
14031 1 40.2279 2.4499 -14.2457 0.00058633 1 
14032 1 38.4636 0.284818 -13.5602 0.000545888 1 
14033 1 40.8059 0.78499 -12.0138 0.00157293 1 
14034 1 43.4171 0.238695 -13.0918 0.00135409 1 
14065 1 22.9079 10.7451 -14.5016 0.00037745 1 
14067 1 23.7524 8.02585 -14.8998 0.000344508 1 
14069 1 26.0963 8.51384 -13.3417 0.000564407 1 
14070 1 28.6907 7.96383 -14.4142 0.000251055 1 
14071 1 26.9382 5.79426 -13.7258 0.000637494 1 
14072 1 29.5291 5.24923 -14.8017 0.000280444 1 
14073 1 29.2829 6.28594 -12.1609 0.000844291 1 
14074 1 31.8695 5.74356 -13.233 0.000328644 1 
14075 1 30.1165 3.5714 -12.5401 0.000806735 1 
14076 1 32.7019 3.03351 -13.6234 0.000293476 1 
14077 1 32.4554 4.06989 -10.97 0.000981588 1 
14078 1 35.0367 3.53321 -12.0587 0.000432648 1 
14079 1 33.281 1.36238 -11.3586 0.00066998 1 
14080 1 35.8677 0.826209 -12.4592 0.000458429 1 
14081 1 35.6112 1.86547 -9.79896 0.00140631 1 
14082 1 38.2009 1.32749 -10.9129 0.00133509 1 
14097 1 11.3757 16.3037 -14.6169 0.000613584 1 
14101 1 14.5497 14.0844 -13.4495 0.00106217 1 
14102 1 17.1353 13.5288 -14.5487 0.000536367 1 
14103 1 15.3874 11.369 -13.874 0.000445063 1 
14104 1 17.9757 10.8136 -14.9668 0.000306474 1 
14105 1 17.7234 11.8572 -12.3056 0.000842591 1 
14106 1 20.3128 11.301 -13.4075 0.000561438 1 
14107 1 18.5654 9.13692 -12.7238 0.000585364 1 
14108 1 21.1573 8.58087 -13.8151 0.000472502 1 
14109 1 20.9042 9.62275 -11.1728 0.00125213 1 
14110 1 23.4993 9.06736 -12.2644 0.00100046 1 
14111 1 21.7498 6.89758 -11.5705 0.00122776 1 
14112 1 24.3446 6.34327 -12.651 0.00103861 1 
14113 1 24.0955 7.38241 -10.0311 0.00314897 1 
14114 1 26.692 6.83155 -11.0982 0.00197758 1 
14115 1 24.9393 4.65342 -10.3944 0.00347661 1 
14116 1 27.53 4.10984 -11.4655 0.00204563 1 
14117 1 27.2919 5.14239 -8.85063 0.0075949 1 
14118 1 29.8765 4.60514 -9.90166 0.00302173 1 
14119 1 28.1182 2.42213 -9.1902 0.0058518 1 
14120 1 30.6998 1.89326 -10.269 0.0021592 1 
14121 1 30.4648 2.92369 -7.63095 0.010349 1 
14122 1 33.0361 2.39848 -8.69846 0.00268808 1 
14123 1 31.2713 0.221412 -7.98391 0.00449534 1 
14124 1 33.6074 0.738882 -6.41475 0.00601641 1 
14125 1 36.1831 0.204267 -7.5288 0.0047265 1 
14127 1 97.8665 21.8501 -14.7799 0.000250784 1 
14131 1 101.039 19.6318 -13.622 0.000496033 1 
14132 1 5.59823 19.0781 -14.7105 0.000316083 1 
14133 1 3.83668 16.9258 -14.0434 0.000526079 1 
14135 1 6.18366 17.4135 -12.4679 0.00110105 1 
14136 1 8.78409 16.8586 -13.5403 0.000695063 1 
14137 1 7.02373 14.7031 -12.8895 0.00102455 1 
14138 1 9.62182 14.1481 -13.958 0.000508179 1 
14139 1 9.37664 15.1931 -11.2981 0.00173188 1 
14140 1 11.9664 14.6387 -12.3639 0.00130462 1 
14141 1 10.2139 12.476 -11.7209 0.00119236 1 
14142 1 12.8019 11.923 -12.7889 0.000710802 1 
14143 1 12.5604 12.9687 -10.1218 0.00258526 1 
14144 1 15.1403 12.4131 -11.2065 0.00130812 1 
14145 1 13.3957 10.2442 -10.5512 0.00134299 1 
14146 1 15.9789 9.69165 -11.6325 0.000736881 1 
14147 1 15.7385 10.7304 -8.97362 0.00211903 1 
14148 1 18.3173 10.1773 -10.0702 0.00159388 1 
14149 1 16.5742 8.00649 -9.39208 0.00134115 1 
14150 1 19.1589 7.45354 -10.481 0.00131856 1 
14151 1 18.9182 8.48864 -7.83643 0.00415134 1 
14152 1 21.5008 7.93618 -8.942 0.00345699 1 
14153 1 19.7565 5.76552 -8.22984 0.00381758 1 
14154 1 22.3455 5.20773 -9.31764 0.00374927 1 
14155 1 22.1028 6.24167 -6.7045 0.014568 1 
14156 1 24.6968 5.68745 -7.79635 0.0128259 1 
14157 1 22.9413 3.52014 -7.03592 0.0108204 1 
14158 1 25.5318 2.95799 -8.11517 0.0103674 1 
14159 1 25.297 3.987 -5.53534 0.0509573 1 
14160 1 27.8867 3.44847 -6.58594 0.0256745 1 
14161 1 26.1063 1.26675 -5.79132 0.0460095 1 
14162 1 28.6884 0.73783 -6.88482 0.0166694 1 
14163 1 28.4495 1.76037 -4.2743 0.149814 1 
14164 1 31.0315 1.25526 -5.33673 0.0304951 1 
14165 1 98.4426 20.184 -12.5203 0.000963947 1 
14166 1 99.277 17.4794 -12.9481 0.000712424 1 
14167 1 99.0117 18.5146 -10.2707 0.00257763 1 
14168 1 3.57581 17.9658 -11.3827 0.00189796 1 
14169 1 99.8482 15.8079 -10.7128 0.00222695 1 
14170 1 4.41643 15.257 -11.8133 0.0019935 1 
14171 1 4.14997 16.2946 -9.16887 0.00806749 1 
14172 1 6.77117 15.7464 -10.2438 0.00367634 1 
14173 1 4.99609 13.5801 -9.60512 0.00891601 1 
14174 1 7.61299 13.0299 -10.6693 0.00347461 1 
14175 1 7.36412 14.0728 -8.04784 0.0111705 1 
14176 1 9.97375 13.523 -9.07101 0.00368837 1 
14177 1 8.20555 11.3485 -8.47001 0.0116569 1 
14178 1 10.8098 10.7955 -9.49318 0.00295172 1 
14179 1 10.5748 11.8482 -6.86179 0.00859559 1 
14180 1 13.1613 11.2842 -7.8959 0.00489726 1 
14181 1 11.4085 9.10331 -7.26861 0.0117996 1 
14182 1 13.9927 8.55635 -8.31435 0.00272158 1 
14183 1 13.7664 9.57941 -5.67021 0.0191824 1 
14184 1 16.3445 9.03461 -6.74417 0.00526841 1 
14185 1 14.5868 6.85795 -6.07482 0.01272 1 
14186 1 17.1734 6.31639 -7.14611 0.00368778 1 
14187 1 16.9659 7.33618 -4.51152 0.011435 1 
14188 1 19.528 6.79789 -5.59312 0.0155469 1 
14189 1 17.7782 4.63636 -4.8809 0.0125358 1 
14190 1 20.3587 4.08665 -5.94971 0.0111631 1 
14191 1 20.1525 5.1407 -3.30285 0.0607825 1 
14192 1 22.7084 4.56374 -4.41536 0.062231 1 
14193 1 20.9611 2.45203 -3.61298 0.0549368 1 
14194 1 23.5238 1.86695 -4.6931 0.0518192 1 
14195 1 23.3639 2.95974 -2.00867 1.3343 5 
14196 1 25.8899 2.34235 -3.20579 2.82371 5 
14197 1 24.1085 0.300656 -2.23138 5.19858 5 
14198 1 27.2327 1.51239 0.331412 13.6112 5 
14199 1 28.8517 0.132789 -1.80464 5.19991 5 
14200 1 99.5727 16.8327 -8.04239 0.00768472 1 
14201 1 97.8167 14.6668 -7.33988 0.0136209 1 
14202 1 2.37535 14.1256 -8.49177 0.0100459 1 
14203 1 100.129 15.1243 -5.8321 0.0480734 1 
14204 1 4.72819 14.6042 -6.99981 0.0446155 1 
14205 1 2.94408 12.4352 -6.26499 0.0418359 1 
14206 1 5.57804 11.8886 -7.42233 0.0408405 1 
14207 1 5.31019 12.893 -4.86589 0.232662 1 
14208 1 7.95631 12.3993 -5.88509 0.0368676 1 
14209 1 6.17475 10.1751 -5.27479 0.26991 1 
14210 1 8.80082 9.66554 -6.29449 0.0508402 1 
14211 1 8.58319 10.7665 -3.75705 0.111434 1 
14212 1 11.182 10.1805 -4.66784 0.0420281 1 
14213 1 9.3983 8.02385 -4.14914 0.473514 1 
14214 1 11.9863 7.39491 -5.02959 0.114051 1 
14215 1 11.8522 8.55189 -2.53249 6.42676 5 
14216 1 14.4047 7.86083 -3.46772 0.150807 1 
14217 1 12.5984 5.76946 -2.73951 6.91673 5 
14218 1 15.1968 5.176 -3.81647 0.0342041 1 
14219 1 14.9819 6.21574 -1.17321 5.91863 5 
14220 1 17.6009 5.68296 -2.24985 0.0463384 1 
14221 1 15.753 3.57266 -1.5498 0.173333 1 
14222 1 18.3877 3.01523 -2.57868 0.0393519 1 
14223 1 18.2 4.13162 0.047328 0.251865 1 
14224 1 20.8235 3.59981 -0.910719 0.678686 5 
14225 1 18.939 1.43922 -0.301008 0.641933 5 
14226 1 21.527 0.922011 -1.19731 1.16793 5 
14227 1 24.2688 1.95449 0.737727 7.0289 5 
14228 1 98.3991 12.9807 -5.04556 0.0870562 1 
14229 1 98.2382 13.9365 -2.24457 6.09666 5 
14230 1 2.6933 13.3946 -3.56616 5.2807 5 
14231 1 99.1025 11.3228 -2.65593 2.33776 5 
14232 1 3.56537 10.7319 -3.99016 5.34125 5 
14233 1 5.56665 12.1437 -0.369623 8.80917 5 
14234 1 5.9755 11.2139 -2.80379 6.75432 5 
14235 1 3.86022 9.73063 -1.15083 9.87554 5 
14236 1 6.87407 8.53026 -3.1582 8.42314 5 
14237 1 7.50348 10.8601 1.33722 0.461137 1 
14238 1 9.24256 9.15729 -1.64075 8.24732 5 
14239 1 6.87956 5.87181 0.443568 2.65742 5 
14240 1 10.0484 6.54609 -1.98926 11.7649 5 
14241 1 11.2712 7.96444 0.0465605 6.99471 5 
14242 1 13.0509 4.34335 -0.414401 7.09858 5 
14243 1 2.82306 12.4722 -0.589744 8.27079 5 
14244 1 99.3132 9.92443 -0.16598 6.55697 2 
16480 1 52.7198 1.78495 -14.2565 0.00100829 1 
16535 1 41.155 7.3224 -14.5085 0.00034848 1 
16537 1 41.9932 4.61334 -14.9158 0.000443379 1 
16539 1 44.3418 5.11305 -13.3364 0.000700815 1 
16540 1 46.9438 4.56 -14.393 0.000474599 1 
16541 1 45.1838 2.4018 -13.746 0.000792119 1 
16542 1 47.7851 1.84861 -14.8006 0.00049631 1 
16543 1 47.5377 2.90031 -12.1511 0.00117219 1 
16544 1 50.1334 2.34295 -13.1964 0.00101691 1 
16545 1 48.3806 0.186329 -12.5596 0.00118374 1 
16546 1 50.7333 0.682055 -10.9419 0.00231989 1 
16547 1 53.3146 0.123017 -11.9894 0.00228464 1 
16586 1 29.6015 12.8456 -14.7038 0.000101065 1 
16590 1 32.7842 10.6253 -13.5284 0.000158203 1 
16591 1 35.3784 10.0782 -14.6051 0.000134692 1 
16592 1 33.6222 7.9126 -13.9205 0.000152238 1 
16594 1 35.9587 8.41179 -12.3521 0.000297034 1 
16595 1 38.5544 7.86794 -13.4339 0.000373301 1 
16596 1 36.7934 5.70201 -12.7517 0.000331438 1 
16597 1 39.3907 5.1593 -13.839 0.000472557 1 
16598 1 39.1295 6.20437 -11.1924 0.0010877 1 
16599 1 41.7347 5.66126 -12.2724 0.00109031 1 
16600 1 39.9661 3.49572 -11.6037 0.00143183 1 
16601 1 42.5753 2.95107 -12.6844 0.00131749 1 
16602 1 42.3128 3.99937 -10.0522 0.00374221 1 
16603 1 44.9298 3.45335 -11.1091 0.00198828 1 
16604 1 43.1582 1.28716 -10.4679 0.00383327 1 
16605 1 45.7753 0.739611 -11.52 0.00210872 1 
16606 1 45.5229 1.79203 -8.90019 0.00529932 1 
16607 1 48.1373 1.24071 -9.91813 0.00271264 1 
16631 1 18.0501 18.3891 -14.8198 0.000374951 1 
16635 1 21.2221 16.1739 -13.6749 0.000528267 1 
16636 1 23.8185 15.6211 -14.7768 0.000284749 1 
16637 1 22.0636 13.4623 -14.0919 0.000464244 1 
16639 1 24.4041 13.9544 -12.5385 0.0006439 1 
16640 1 27.0034 13.3995 -13.6251 0.000250043 1 
16641 1 25.2508 11.2356 -12.9465 0.000551755 1 
16642 1 27.8484 10.6816 -14.023 0.000211943 1 
16643 1 27.5965 11.7301 -11.3864 0.00058789 1 
16644 1 30.1915 11.1756 -12.4552 0.000310658 1 
16645 1 28.4429 9.00714 -11.7781 0.000666226 1 
16646 1 31.0331 8.4581 -12.8443 0.000334765 1 
16647 1 30.7877 9.50533 -10.2017 0.00131936 1 
16648 1 33.3708 8.95687 -11.2704 0.000580955 1 
16649 1 31.6253 6.78476 -10.5856 0.00117427 1 
16650 1 34.2057 6.24308 -11.6623 0.00049622 1 
16651 1 33.9579 7.2894 -9.00468 0.00207734 1 
16652 1 36.5356 6.74561 -10.097 0.000911909 1 
16653 1 34.7871 4.57487 -9.39683 0.00151144 1 
16654 1 37.3673 4.03687 -10.5014 0.00114851 1 
16655 1 37.1086 5.08167 -7.83322 0.00498061 1 
16656 1 39.6983 4.54066 -8.95933 0.00430813 1 
16657 1 37.9371 2.367 -8.25985 0.00437576 1 
16658 1 40.5397 1.82858 -9.38259 0.00440537 1 
16659 1 40.2695 2.86098 -6.75576 0.0158218 1 
16660 1 42.894 2.33057 -7.85734 0.011416 1 
16661 1 41.1136 0.155752 -7.17073 0.0126897 1 
16662 1 43.4771 0.653565 -5.68717 0.0383472 1 
16663 1 46.1187 0.130143 -6.71289 0.0126829 1 
16673 1 6.51672 23.9304 -14.9797 0.000134036 1 
16677 1 9.69953 21.7099 -13.7998 0.000573291 1 
16678 1 12.2902 21.1558 -14.8878 0.000552796 1 
16679 1 10.5385 19.0085 -14.2043 0.000680043 1 
16681 1 12.8788 19.493 -12.6106 0.00181014 1 
16682 1 15.4628 18.9405 -13.7111 0.00102393 1 
16683 1 13.7143 16.7927 -13.0243 0.00165998 1 
16684 1 16.2976 16.2386 -14.126 0.0010216 1 
16685 1 16.0458 17.2817 -11.4361 0.00384402 1 
16686 1 18.6302 16.7266 -12.56 0.00110965 1 
16687 1 16.8827 14.5737 -11.873 0.00160956 1 
16688 1 19.4698 14.0176 -12.9863 0.00078354 1 
16689 1 19.2143 15.0615 -10.312 0.00217904 1 
16690 1 21.806 14.5083 -11.4356 0.001174 1 
16691 1 20.0587 12.3459 -10.7508 0.00143971 1 
16692 1 22.6523 11.7909 -11.8582 0.00104958 1 
16693 1 22.398 12.8388 -9.21279 0.00270236 1 
16694 1 24.9974 12.2858 -10.3114 0.00157424 1 
16695 1 23.2477 10.114 -9.6368 0.00293838 1 
16696 1 25.847 9.55999 -10.7154 0.00165388 1 
16697 1 25.6015 10.6156 -8.09966 0.00505681 1 
16698 1 28.1991 10.0599 -9.15102 0.00180512 1 
16699 1 26.4508 7.87935 -8.49276 0.00618024 1 
16700 1 29.0433 7.32991 -9.53255 0.00258453 1 
16701 1 28.813 8.39233 -6.92053 0.00678048 1 
16702 1 31.3908 7.83521 -7.93912 0.00610602 1 
16703 1 29.6522 5.65149 -7.28354 0.0127923 1 
16704 1 32.2192 5.11216 -8.31711 0.00463654 1 
16705 1 32.0149 6.17167 -5.65577 0.0336381 1 
16706 1 34.5478 5.62579 -6.72416 0.0113289 1 
16707 1 32.8077 3.44576 -6.03714 0.0110358 1 
16708 1 35.3632 2.90627 -7.12775 0.00618427 1 
16709 1 35.1377 3.96409 -4.44745 0.0627586 1 
16710 1 37.683 3.39466 -5.59478 0.0223984 1 
16711 1 35.9416 1.25037 -4.83297 0.0350703 1 
16712 1 38.5099 0.692583 -6.00724 0.0134474 1 
16713 1 38.2903 1.69566 -3.31856 0.151952 1 
16714 1 40.8453 1.16251 -4.54775 0.0496696 1 
16717 1 99.3662 25.0356 -12.7908 0.0002921 1 
16718 1 3.92078 24.4839 -13.889 0.00014922 1 
16719 1 100.202 22.3342 -13.2036 0.000345835 1 
16720 1 4.75934 21.7817 -14.2976 0.000239173 1 
16721 1 4.50294 22.8174 -11.6313 0.000631951 1 
16722 1 7.10398 22.2649 -12.7174 0.000486585 1 
16723 1 5.34314 20.1174 -12.0467 0.000977516 1 
16724 1 7.94472 19.5635 -13.1256 0.000675749 1 
16725 1 7.69494 20.6018 -10.458 0.00191202 1 
16726 1 10.2918 20.0472 -11.5277 0.00180591 1 
16727 1 8.53683 17.9012 -10.8741 0.00206432 1 
16728 1 11.1304 17.3467 -11.9403 0.00185276 1 
16729 1 10.8879 18.3889 -9.25337 0.00504601 1 
16730 1 13.469 17.8356 -10.3276 0.0051808 1 
16731 1 11.7256 15.6855 -9.68238 0.00411091 1 
16732 1 14.3031 15.131 -10.7635 0.00397843 1 
16733 1 14.0603 16.1791 -8.05208 0.0168672 1 
16734 1 16.6329 15.6167 -9.17915 0.00458609 1 
16735 1 14.8999 13.4563 -8.52705 0.00388008 1 
16736 1 17.4756 12.8998 -9.63394 0.00245163 1 
16737 1 17.24 13.9305 -6.94272 0.00669788 1 
16738 1 19.8094 13.3875 -8.08087 0.00466717 1 
16739 1 18.0814 11.2117 -7.40558 0.00591327 1 
16740 1 20.6556 10.666 -8.52754 0.00335505 1 
16741 1 20.4202 11.7031 -5.86501 0.0186623 1 
16742 1 23.0009 11.1642 -7.01147 0.00805868 1 
16743 1 21.2619 8.97639 -6.31476 0.0100718 1 
16744 1 23.8505 8.43099 -7.42971 0.0104161 1 
16745 1 23.6166 9.48694 -4.83893 0.031497 1 
16746 1 26.2191 8.94539 -5.91176 0.0199382 1 
16747 1 24.4644 6.7378 -5.24229 0.0588299 1 
16748 1 27.0639 6.19407 -6.27825 0.0259157 1 
16749 1 26.8521 7.29838 -3.74985 0.0682012 1 
16750 1 29.4412 6.7421 -4.70349 0.0272278 1 
16751 1 27.6732 4.52516 -4.05461 0.0876764 1 
16752 1 30.2498 3.97452 -5.02982 0.0566571 1 
16753 1 30.0205 5.1308 -2.50679 0.273197 1 
16754 1 32.5965 4.50803 -3.35866 0.242315 1 
16755 1 30.822 2.30468 -2.73892 0.565347 1 
16756 1 33.3885 1.80469 -3.74169 0.0828318 1 
16757 1 33.3434 2.94946 -1.06364 6.06255 5 
16758 1 35.8034 2.3083 -2.13302 5.80503 5 
16759 1 33.8564 0.207391 -1.47558 0.303085 1 
16760 1 36.111 0.751711 0.189117 6.82434 5 
120728 2 97.3895 52.4198 3.89726 0.0244356 1 
16762 1 99.9424 23.365 -10.5296 0.00124163 1 
16763 1 98.1806 21.2142 -9.82971 0.00489597 1 
16764 1 100.778 20.6671 -10.9523 0.00166434 1 
16765 1 100.51 21.6914 -8.27858 0.00905398 1 
16766 1 5.08372 21.1517 -9.38458 0.00289929 1 
16767 1 3.30598 18.9983 -8.71937 0.00678151 1 
16768 1 5.92749 18.4534 -9.81206 0.00406577 1 
16769 1 5.65907 19.4853 -7.16388 0.0147257 1 
16770 1 8.28987 18.9413 -8.20634 0.00743216 1 
16771 1 6.51548 16.7841 -7.60836 0.0146176 1 
16772 1 9.13389 16.2385 -8.63577 0.00525727 1 
16773 1 8.89324 17.2796 -5.96908 0.0303607 1 
16774 1 11.4879 16.7325 -6.98333 0.0127041 1 
16775 1 9.73819 14.5742 -6.41725 0.0120891 1 
16776 1 12.3252 14.0196 -7.44082 0.0114588 1 
16777 1 12.1013 15.0682 -4.73124 0.0801379 1 
16778 1 14.6716 14.4885 -5.83246 0.0128956 1 
16779 1 12.945 12.3251 -5.2432 0.0214579 1 
16780 1 15.5154 11.7572 -6.30695 0.00810569 1 
16781 1 15.3317 12.7541 -3.63907 0.0670649 1 
16782 1 17.8798 12.2191 -4.71156 0.0260435 1 
16783 1 16.1639 10.0427 -4.09039 0.0297759 1 
16784 1 18.7028 9.51489 -5.17476 0.0255353 1 
16785 1 18.5586 10.4959 -2.43271 0.238417 1 
16786 1 21.0486 10.0071 -3.66954 0.161252 1 
16787 1 19.3418 7.82858 -2.93353 0.165868 1 
16788 1 21.8822 7.27585 -4.10173 0.0690666 1 
16789 1 21.7552 8.28669 -1.49216 5.41187 5 
16790 1 24.2628 7.79198 -2.72603 0.246154 1 
16791 1 22.5535 5.61526 -1.77384 2.26967 5 
16792 1 25.0881 5.07146 -3.03823 0.316103 1 
16793 1 24.9631 6.22048 -0.586527 6.07865 5 
16794 1 27.4844 5.72487 -1.60339 0.323638 1 
16795 1 25.7584 3.64234 -0.699988 8.96736 5 
16796 1 28.289 2.90428 -1.80286 6.30975 5 
16797 1 30.7898 3.67157 -0.377491 8.15868 5 
16798 1 31.1173 0.847623 -0.336374 5.73379 5 
16799 1 97.9204 22.2212 -7.10456 0.0286528 1 
16800 1 98.7413 19.5357 -7.57243 0.0168258 1 
16801 1 98.4973 20.505 -4.80662 0.0884535 1 
16802 1 101.06 20.0189 -6.04732 0.0605562 1 
16803 1 99.2938 17.8224 -5.35244 0.103074 1 
16804 1 3.86586 17.3201 -6.53034 0.0338925 1 
16805 1 3.56659 18.3244 -3.89795 6.61703 5 
16806 1 6.23306 17.8006 -5.00115 0.0443781 1 
16807 1 4.43932 15.5865 -4.4402 0.266648 1 
16808 1 7.11354 15.1043 -5.44282 0.0356804 1 
16809 1 6.84056 16.1149 -2.87436 0.185748 1 
16810 1 9.51167 15.6144 -3.74469 0.150434 1 
16811 1 7.73565 13.4452 -3.30463 0.126556 1 
16812 1 10.3542 12.9184 -4.22468 0.0483594 1 
16813 1 10.1001 13.9356 -1.51545 4.98889 5 
16814 1 12.7429 13.3087 -2.59905 0.469926 1 
16815 1 10.973 11.2678 -2.06426 6.4764 5 
16816 1 13.6035 10.6015 -3.05471 0.362653 1 
16817 1 13.188 11.2226 -0.396407 6.23805 5 
16818 1 15.9346 10.9422 -1.42325 0.563538 1 
16819 1 14.0507 8.68669 -0.857623 7.29459 5 
16820 1 16.7716 8.3263 -1.87008 0.330057 1 
16821 1 19.44 8.84263 -0.203703 6.32905 5 
16822 1 20.0552 6.22398 -0.602687 2.07802 5 
16823 1 99.1785 18.7288 -2.46619 7.83827 5 
16824 1 99.8653 16.0682 -3.12502 5.45105 5 
16825 1 3.39577 17.5819 0.338078 7.06581 5 
16826 1 4.18729 16.5703 -1.94503 13.129 5 
16827 1 4.52636 14.7976 0.05668 8.41836 5 
16828 1 5.07887 13.8917 -2.36973 7.24592 5 
16829 1 7.32221 14.3906 -0.72084 6.60453 2 
16830 1 6.41007 13.4971 1.80134 0.380092 1 
16831 1 8.32722 11.7763 -1.16747 6.64878 2 
16832 1 99.8215 15.1757 -0.137043 7.22826 5 
19120 1 59.3856 3.8599 -14.4465 0.000245228 1 
19122 1 60.2245 1.156 -14.854 0.000239749 1 
19124 1 62.5636 1.63685 -13.2863 0.00029351 1 
19125 1 65.1611 1.081 -14.381 0.000157604 1 
19187 1 47.8555 9.42124 -14.6402 0.000354622 1 
19191 1 51.0358 7.20155 -13.4439 0.00105939 1 
19192 1 53.6235 6.64109 -14.5233 0.000770869 1 
19193 1 51.8791 4.49356 -13.8484 0.00109817 1 
19194 1 54.4641 3.9344 -14.9268 0.000815179 1 
19195 1 54.2115 4.97738 -12.2452 0.00258152 1 
19196 1 56.7963 4.416 -13.3435 0.000865013 1 
19197 1 55.0537 2.27158 -12.6512 0.0023131 1 
19198 1 57.6355 1.71278 -13.7504 0.000839134 1 
19199 1 57.3809 2.74958 -11.0612 0.00304367 1 
19200 1 59.9686 2.19172 -12.1804 0.000779186 1 
19201 1 58.2185 0.0503352 -11.4773 0.00311759 1 
19202 1 60.5474 0.526211 -9.91169 0.00393843 1 
19250 1 36.3021 14.9516 -14.8881 0.000271694 1 
19254 1 39.4815 12.7387 -13.7026 0.000323011 1 
19255 1 42.0797 12.1894 -14.765 0.000181642 1 
19256 1 40.3176 10.0305 -14.1034 0.000284469 1 
19258 1 42.6598 10.529 -12.516 0.000438968 1 
19259 1 45.2597 9.97695 -13.5761 0.000353403 1 
19260 1 43.5002 7.82188 -12.9253 0.000567027 1 
19261 1 46.1015 7.26945 -13.9844 0.000421962 1 
19262 1 45.8455 8.31922 -11.3261 0.000982541 1 
19263 1 48.4443 7.76209 -12.3798 0.000949344 1 
19264 1 46.6918 5.61151 -11.7395 0.0010837 1 
19265 1 49.2898 5.05369 -12.7879 0.000999573 1 
19266 1 49.0378 6.10655 -10.12 0.00220376 1 
19267 1 51.6282 5.54221 -11.1695 0.00276702 1 
19268 1 49.8881 3.39594 -10.5313 0.00227691 1 
19269 1 52.4745 2.83281 -11.5764 0.00264707 1 
19270 1 52.2274 3.88525 -8.88744 0.00622228 1 
19271 1 54.803 3.3155 -9.95339 0.00719552 1 
19272 1 53.0755 1.17213 -9.29753 0.00610409 1 
19273 1 55.6449 0.609619 -10.367 0.00579959 1 
19274 1 55.4002 1.65412 -7.64446 0.0164353 1 
19275 1 57.9642 1.08467 -8.76179 0.0126576 1 
19311 1 27.9156 18.2728 -13.9049 0.00022536 1 
19312 1 30.5168 17.7204 -14.9905 0.000180166 1 
19313 1 28.758 15.5604 -14.3066 0.000147216 1 
19315 1 31.0984 16.0547 -12.7461 0.000277348 1 
19316 1 33.7007 15.5019 -13.8209 0.000308026 1 
19317 1 31.9426 13.3398 -13.1379 0.000192329 1 
19318 1 34.5404 12.7894 -14.2118 0.000185803 1 
19319 1 34.2813 13.8364 -11.5722 0.000620249 1 
19320 1 36.8816 13.287 -12.6398 0.000540959 1 
19321 1 35.1217 11.1232 -11.9593 0.00035368 1 
19322 1 37.7182 10.5768 -13.0338 0.000384311 1 
19323 1 37.4562 11.6242 -10.3902 0.00131061 1 
19324 1 40.0575 11.0773 -11.4553 0.000719699 1 
19325 1 38.293 8.91341 -10.7862 0.000995678 1 
19326 1 40.8954 8.36947 -11.861 0.000813501 1 
19327 1 40.6274 9.41647 -9.21508 0.0021514 1 
19328 1 43.2385 8.87066 -10.2749 0.00138511 1 
19329 1 41.4698 6.70854 -9.63144 0.00290694 1 
19330 1 44.0839 6.16361 -10.6923 0.00173558 1 
19331 1 43.8171 7.21176 -8.05149 0.00474088 1 
19332 1 46.4354 6.66423 -9.08506 0.00265939 1 
19333 1 44.6704 4.50434 -8.47919 0.00516271 1 
19334 1 47.2875 3.95521 -9.50456 0.00262403 1 
19335 1 47.0325 5.01126 -6.86002 0.00696715 1 
19336 1 49.6391 4.45494 -7.86356 0.0047017 1 
19337 1 47.892 2.30042 -7.285 0.00618984 1 
19338 1 50.494 1.73918 -8.27729 0.00498317 1 
19339 1 50.2524 2.80844 -5.61466 0.0126235 1 
19340 1 52.8356 2.22915 -6.59528 0.0138481 1 
19341 1 51.1075 0.0838342 -6.02758 0.0139651 1 
19342 1 53.4577 0.572033 -4.28801 0.0598129 1 
114074 2 92.7136 37.919 3.62323 1.37677 5 
19366 1 16.3842 23.7889 -14.0239 0.000593062 1 
19368 1 17.2168 21.0892 -14.4156 0.000380464 1 
19370 1 19.5552 21.5767 -12.8545 0.000576099 1 
19371 1 22.146 21.0335 -13.9579 0.000243994 1 
19372 1 20.3858 18.8782 -13.259 0.000511267 1 
19373 1 22.9794 18.3297 -14.3658 0.000277444 1 
19374 1 22.7227 19.371 -11.7029 0.000679709 1 
19375 1 25.3175 18.8237 -12.8089 0.000364325 1 