ITEM: TIMESTEP
0
ITEM: NUMBER OF ATOMS
19585
ITEM: BOX BOUNDS xy xz yz pp pp ss
0.0000000000000000e+00 1.5776282043499998e+02 5.5145058814999999e+01
0.0000000000000000e+00 1.0658525924500000e+02 0.0000000000000000e+00
-9.8104042949512987e+01 1.0484845151020293e+02 0.0000000000000000e+00
ITEM: ATOMS id type x y z c_csym c_cna 
1645 1 3.14586 0.0764902 -14.4952 9.79842e-05 1 
1646 1 1.15454 1.34346 -12.8765 0.00027981 1 
2431 1 103.04 8.70708 -14.4617 6.46768e-05 1 
2433 1 103.042 5.86496 -14.7683 6.99815e-05 1 
2435 1 3.14451 5.76692 -13.8693 7.52672e-05 1 
2437 1 3.14576 2.92316 -14.1807 8.51875e-05 1 
2439 1 5.86273 2.82673 -13.284 0.000113453 1 
2440 1 7.85693 1.56364 -14.9046 8.37442e-05 1 
2441 1 103.766 7.02845 -12.2523 0.000173861 1 
2442 1 103.77 4.18726 -12.5616 0.000240528 1 
2443 1 104.498 5.35069 -10.04 0.000755885 1 
2444 1 3.87139 4.08851 -11.6605 0.000233254 1 
2445 1 1.88686 2.50858 -10.3536 0.000894791 1 
2446 1 3.87324 1.24363 -11.9763 0.000303311 1 
2447 1 4.60121 2.40757 -9.44928 0.000881483 1 
2448 1 6.58552 1.14635 -11.0833 0.000482066 1 
2449 1 103.247 4.93795 -6.2251 0.00292657 1 
2450 1 2.62216 3.66939 -7.82169 0.00359055 1 
2451 1 103.267 2.089 -6.53445 0.00569475 1 
2452 1 2.62891 0.825989 -8.14045 0.0032275 1 
2453 1 3.37567 1.97879 -5.58904 0.0184763 1 
2454 1 5.33229 0.71727 -7.23488 0.0033168 1 
2455 1 104.014 3.25229 -4.01829 0.0141258 1 
2456 1 1.41542 0.397796 -4.30382 0.0324167 1 
2458 1 4.12864 0.264122 -3.3169 0.261877 1 
2459 1 2.1662 1.57895 -1.76966 0.50157 1 
2460 1 102.621 0.0244244 -0.527878 5.60295 5 
3432 1 15.288 0.111961 -14.7191 0.000110843 1 
3433 1 103.034 14.3981 -13.8565 9.64029e-05 1 
3435 1 103.037 11.5507 -14.1588 7.74331e-05 1 
3437 1 105.757 11.453 -13.262 0.00012477 1 
3438 1 107.756 10.1935 -14.8723 7.45425e-05 1 
3439 1 105.76 8.60937 -13.5632 8.64618e-05 1 
3441 1 5.86138 8.5143 -12.6628 0.000135329 1 
3442 1 7.85769 7.25561 -14.2773 7.31898e-05 1 
3443 1 5.86226 5.67157 -12.9705 0.000101438 1 
3444 1 7.85742 4.41088 -14.5894 6.78924e-05 1 
3445 1 8.57821 5.57981 -12.0715 0.000195524 1 
3446 1 10.5749 4.31862 -13.689 0.000101371 1 
3447 1 8.57824 2.7332 -12.3893 0.000248078 1 
3448 1 10.5748 1.47014 -14.0072 0.000111986 1 
3449 1 11.2954 2.64198 -11.4916 0.000283045 1 
3450 1 13.2933 1.37794 -13.1051 0.000150122 1 
3451 1 103.758 12.7129 -11.6525 0.00016362 1 
3452 1 103.762 9.86939 -11.9502 0.000132408 1 
3453 1 104.484 11.0323 -9.44054 0.00034698 1 
3454 1 106.482 9.77257 -11.0507 0.000233503 1 
3455 1 104.491 8.19244 -9.73604 0.000397001 1 
3456 1 3.86816 6.9311 -11.3513 0.000209044 1 
3457 1 4.59075 8.09856 -8.83227 0.000565631 1 
3458 1 6.58345 6.83867 -10.4508 0.000325933 1 
3459 1 4.5963 5.25334 -9.13603 0.000808716 1 
3460 1 6.58457 3.99366 -10.7642 0.000327078 1 
3461 1 7.30335 5.16192 -8.24194 0.00108371 1 
3462 1 9.29626 3.90323 -9.87244 0.000821904 1 
3463 1 7.30529 2.31176 -8.56097 0.00156406 1 
3464 1 9.29754 1.05281 -10.1975 0.0011864 1 
3465 1 10.0109 2.22125 -7.6875 0.0049662 1 
3466 1 12.0174 0.962436 -9.30427 0.00102645 1 
3467 1 103.212 10.6271 -5.61291 0.00384482 1 
3468 1 105.215 9.36219 -7.21805 0.00159402 1 
3469 1 103.228 7.78435 -5.91593 0.00296946 1 
3470 1 105.226 6.51878 -7.51782 0.00181281 1 
3471 1 105.958 7.7032 -4.99112 0.00718671 1 
3472 1 5.31989 6.42941 -6.61253 0.00192108 1 
3473 1 3.35943 4.84614 -5.29459 0.00751007 1 
3474 1 5.32946 3.57093 -6.91542 0.00400558 1 
3475 1 6.06629 4.76371 -4.39359 0.0186423 1 
3476 1 8.02239 3.47715 -6.03388 0.00682047 1 
3477 1 6.06638 1.86846 -4.69115 0.0370008 1 
3478 1 8.02228 0.61609 -6.3678 0.00655735 1 
3479 1 8.74299 1.76158 -3.84573 0.0747644 1 
3480 1 10.7205 0.525571 -5.53188 0.027776 1 
3481 1 103.969 8.97084 -3.4084 0.0139448 1 
3482 1 103.989 6.11076 -3.71193 0.0150375 1 
3483 1 104.781 7.33413 -1.21319 0.0472049 1 
3484 1 4.12297 6.05052 -2.7641 0.0656861 1 
3485 1 104.796 4.45486 -1.51464 0.118298 1 
3486 1 4.13461 3.17384 -3.06688 0.122253 1 
3487 1 5.06986 4.44448 -0.545094 6.02386 5 
3488 1 6.87216 3.12694 -2.19843 1.3917 5 
3489 1 5.15192 1.53367 -0.910709 3.2396 5 
3490 1 6.86632 0.127985 -2.47538 0.405714 5 
3491 1 7.77186 0.917341 0.337921 6.88528 5 
119701 2 91.9148 30.7004 3.05217 0.352811 1 
3493 1 102.786 5.71498 -0.0643725 0.0707254 1 
4635 1 12.5709 8.74711 -14.6762 9.82873e-05 1 
4637 1 12.571 5.90219 -14.9887 7.77094e-05 1 
4639 1 15.2859 5.8099 -14.0832 0.000155069 1 
4641 1 15.287 2.96245 -14.4007 0.000131337 1 
4643 1 17.9997 2.86997 -13.4981 0.000192031 1 
4645 1 18.0016 0.0188205 -13.818 0.000143546 1 
4646 1 103.029 20.1056 -13.2347 0.000242767 1 
4647 1 105.027 18.8395 -14.8512 0.000119098 1 
4648 1 103.031 17.2502 -13.5501 0.000141607 1 
4650 1 105.749 17.1523 -12.6591 0.000269685 1 
4651 1 107.75 15.8891 -14.2663 0.000142765 1 
4652 1 105.753 14.3002 -12.9625 0.000185254 1 
4653 1 107.753 13.0395 -14.5696 0.000109503 1 
4654 1 108.474 14.2026 -12.0655 0.000318366 1 
4655 1 7.85596 12.9439 -13.6681 0.000176672 1 
4656 1 108.477 11.3569 -12.3622 0.000236345 1 
4657 1 7.85738 10.0991 -13.9704 0.000114578 1 
4658 1 8.57893 11.2643 -11.4564 0.000411561 1 
4659 1 10.5755 10.0072 -13.0639 0.000179284 1 
4660 1 8.57884 8.42331 -11.7591 0.000243486 1 
4661 1 10.5751 7.16416 -13.3735 0.00012493 1 
4662 1 11.2943 8.33547 -10.8502 0.000455672 1 
4663 1 13.2908 7.07374 -12.4656 0.000228179 1 
4664 1 11.2941 5.49054 -11.169 0.000274888 1 
4665 1 13.2918 4.22745 -12.7843 0.000168023 1 
4666 1 14.0098 5.40167 -10.2591 0.000476441 1 
4667 1 16.0062 4.1365 -11.8757 0.000384826 1 
4668 1 14.0142 2.55148 -10.585 0.000381638 1 
4669 1 16.0095 1.28626 -12.1985 0.000340505 1 
4670 1 16.7291 2.46096 -9.67007 0.0011796 1 
4671 1 18.7195 1.19446 -11.2949 0.000356977 1 
4672 1 103.751 18.4166 -11.0462 0.00049821 1 
4673 1 103.754 15.5619 -11.3537 0.000246613 1 
4674 1 104.474 16.7247 -8.85239 0.00101297 1 
4675 1 106.472 15.4629 -10.4638 0.00064896 1 
4676 1 104.478 13.8757 -9.14927 0.000431869 1 
4677 1 106.477 12.6152 -10.7568 0.000413213 1 
4678 1 107.194 13.7768 -8.25871 0.002438 1 
4679 1 6.57981 12.5196 -9.85518 0.000945221 1 
4680 1 107.203 10.9374 -8.53975 0.00099348 1 
4681 1 6.58279 9.68011 -10.147 0.000463421 1 
4682 1 7.30212 10.8492 -7.62743 0.00240534 1 
4683 1 9.29779 9.59423 -9.23646 0.00111395 1 
4684 1 7.30197 8.0115 -7.92775 0.00120512 1 
4685 1 9.29581 6.75126 -9.55085 0.0006655 1 
4686 1 10.0052 7.92954 -7.02539 0.00323722 1 
4687 1 12.0083 6.66555 -8.64506 0.000959973 1 
4688 1 10.0081 5.0756 -7.35581 0.00309731 1 
4689 1 12.0122 3.81468 -8.97454 0.000685675 1 
4690 1 12.7205 4.98704 -6.45739 0.00200074 1 
4691 1 14.7309 3.72548 -8.06119 0.000879717 1 
4692 1 12.7314 2.13266 -6.7936 0.00234395 1 
4693 1 14.742 0.871908 -8.39002 0.00162119 1 
4694 1 15.4574 2.04365 -5.86729 0.00340701 1 
4695 1 17.458 0.781504 -7.45822 0.00674308 1 
4696 1 103.214 16.2919 -5.02706 0.00875768 1 
4697 1 105.195 15.0404 -6.64505 0.00306615 1 
4698 1 103.21 13.4593 -5.32779 0.00429907 1 
4699 1 105.205 12.1992 -6.9322 0.00147429 1 
4700 1 105.923 13.3741 -4.42034 0.00892184 1 
4701 1 107.92 12.1069 -6.03092 0.00600534 1 
4702 1 105.94 10.5494 -4.69412 0.00660141 1 
4703 1 5.31141 9.27677 -6.30926 0.00251715 1 
4704 1 6.02402 10.4777 -3.77852 0.0506148 1 
4705 1 8.01195 9.1942 -5.39188 0.00965412 1 
4706 1 6.04167 7.62891 -4.08521 0.0307108 1 
4707 1 8.01785 6.33763 -5.71916 0.00491179 1 
4708 1 8.70545 7.51901 -3.18923 0.188246 1 
4709 1 10.7026 6.25022 -4.84194 0.0196169 1 
4710 1 8.74748 4.65879 -3.49571 0.154243 1 
4711 1 10.7121 3.38993 -5.18386 0.0251423 1 
4712 1 11.382 4.5443 -2.68721 0.175545 1 
4713 1 13.4321 3.29596 -4.2842 0.00751876 1 
4714 1 11.4049 1.67828 -3.07249 0.193454 1 
4715 1 13.4541 0.441928 -4.63022 0.00761446 1 
4716 1 14.1354 1.59121 -2.12958 0.200427 1 
4717 1 16.1859 0.360237 -3.67131 0.0471281 1 
4718 1 103.925 14.6267 -2.80738 0.0293547 1 
4719 1 103.944 11.8221 -3.09553 0.0199264 1 
4720 1 104.685 13.0129 -0.538289 0.193524 1 
4721 1 106.665 11.7348 -2.14261 0.179589 1 
4722 1 104.741 10.1921 -0.875914 0.071465 1 
4723 1 106.699 8.91127 -2.45547 0.0882555 1 
4724 1 107.519 10.231 0.223048 7.31528 2 
4725 1 6.72193 8.93727 -1.50716 3.28264 5 
4726 1 4.9679 7.33515 -0.168343 6.84118 2 
4727 1 6.82859 6.04485 -1.83276 2.24493 5 
4728 1 9.36284 5.63167 -0.841387 8.42442 5 
4729 1 9.41749 2.78743 -1.26601 8.22874 5 
4730 1 12.0392 2.81819 -0.638124 10.0088 5 
125353 2 99.0031 51.902 2.16711 0.542163 1 
6044 1 27.4263 0.139492 -14.946 9.92337e-05 1 
6059 1 9.85052 17.383 -14.6627 0.000115443 1 
6061 1 9.85221 14.5322 -14.9697 0.000112168 1 
6063 1 12.5698 14.4382 -14.0635 0.000178992 1 
6065 1 12.5705 11.5914 -14.3686 0.000138151 1 
6067 1 15.2842 11.4977 -13.4617 0.000198442 1 
6069 1 15.2849 8.65443 -13.7696 0.000162118 1 
6071 1 17.9957 8.5614 -12.8653 0.000265034 1 
6072 1 19.9917 7.29606 -14.4908 0.000119384 1 
6073 1 17.9974 5.7177 -13.1795 0.000248342 1 
6074 1 19.993 4.45038 -14.8047 0.000107353 1 
6075 1 20.7064 5.62507 -12.2828 0.000343032 1 
6076 1 22.7059 4.35509 -13.91 0.000184554 1 
6077 1 20.7093 2.77654 -12.6015 0.00023764 1 
6078 1 22.7073 1.50622 -14.2266 0.000146009 1 
6079 1 23.4197 2.68123 -11.712 0.000475702 1 
6080 1 25.4233 1.40947 -13.3326 0.000216855 1 
6081 1 103.024 25.81 -12.58 0.000592376 1 
6082 1 105.021 24.5432 -14.2113 0.000276706 1 
6083 1 103.027 22.9605 -12.9095 0.00048006 1 
6084 1 105.024 21.6929 -14.5337 0.000200947 1 
6085 1 105.739 22.8633 -12.0206 0.000710338 1 
6086 1 107.742 21.5963 -13.6414 0.000279729 1 
6087 1 105.745 20.0082 -12.3456 0.000414473 1 
6088 1 107.746 18.7423 -13.9578 0.000175839 1 
6089 1 108.464 19.9099 -11.457 0.00059173 1 
6090 1 110.468 18.646 -13.0605 0.000228944 1 
6091 1 108.469 17.0538 -11.7666 0.000452695 1 
6092 1 110.471 15.7927 -13.3667 0.00022848 1 
6093 1 111.192 16.9578 -10.8671 0.000742652 1 
6094 1 10.5741 15.6984 -12.4607 0.00036389 1 
6095 1 8.57703 14.1077 -11.1614 0.000584588 1 
6096 1 10.5751 12.8506 -12.761 0.000286357 1 
6097 1 11.2956 14.0161 -10.248 0.00108608 1 
6098 1 13.2906 12.7582 -11.8496 0.000479487 1 
6099 1 11.2956 11.1754 -10.5426 0.000666197 1 
6100 1 13.2907 9.91652 -12.1529 0.000317597 1 
6101 1 14.0072 11.087 -9.62244 0.00120831 1 
6102 1 16.0016 9.82446 -11.2415 0.000437926 1 
6103 1 14.007 8.24745 -9.93569 0.000752568 1 
6104 1 16.0032 6.98305 -11.5551 0.000475039 1 
6105 1 16.7164 8.15758 -9.01736 0.00149719 1 
6106 1 18.7108 6.89356 -10.6486 0.000888636 1 
6107 1 16.7217 5.31271 -9.34307 0.00123465 1 
6108 1 18.7148 4.0466 -10.9709 0.000603212 1 
6109 1 19.4253 5.23 -8.43575 0.00279341 1 
6110 1 21.4195 3.95568 -10.0792 0.000894878 1 
6111 1 19.433 2.37373 -8.76601 0.00104315 1 
6112 1 21.4246 1.10105 -10.4015 0.000478064 1 
6113 1 22.1331 2.28386 -7.88076 0.00407237 1 
6114 1 24.131 1.00466 -9.52095 0.00120906 1 
6115 1 103.743 24.1322 -10.384 0.00173859 1 
6116 1 103.748 21.2753 -10.7225 0.000918313 1 
6117 1 104.465 22.4382 -8.20135 0.00349167 1 
6118 1 106.459 21.1744 -9.84098 0.00182568 1 
6119 1 104.471 19.5778 -8.54136 0.00290188 1 
6120 1 106.466 18.3166 -10.1619 0.00113221 1 
6121 1 107.181 19.4718 -7.67157 0.00947617 1 
6122 1 109.187 18.2162 -9.27598 0.00179654 1 
6123 1 107.186 16.6238 -7.97333 0.00318179 1 
6124 1 109.192 15.3648 -9.56822 0.000772863 1 
6125 1 109.904 16.5286 -7.07968 0.00182959 1 
6126 1 9.29474 15.2719 -8.6612 0.00207192 1 
6127 1 7.29599 13.6813 -7.35457 0.00547477 1 
6128 1 9.29857 12.4301 -8.94172 0.00191179 1 
6129 1 10.0093 13.5986 -6.42698 0.0143284 1 
6130 1 12.0108 12.3452 -8.01472 0.00310832 1 
6131 1 10.0079 10.773 -6.70136 0.00822811 1 
6132 1 12.0075 9.51141 -8.31844 0.00232454 1 
6133 1 12.7009 10.6969 -5.76856 0.0136158 1 
6134 1 14.7134 9.42469 -7.39583 0.00269839 1 
6135 1 12.7074 7.84506 -6.11557 0.00457431 1 
6136 1 14.7216 6.57797 -7.72713 0.00159669 1 
6137 1 15.4209 7.75511 -5.19066 0.00637249 1 
6138 1 17.4344 6.48981 -6.79857 0.00438385 1 
6139 1 15.442 4.89554 -5.53455 0.00317001 1 
6140 1 17.4445 3.63728 -7.13397 0.00475891 1 
6141 1 18.1644 4.81072 -4.58237 0.0198812 1 
6142 1 20.1403 3.5678 -6.23583 0.00828524 1 
6143 1 18.1725 1.95981 -4.90931 0.034574 1 
6144 1 20.1518 0.697544 -6.56309 0.00439245 1 
6145 1 20.8559 1.91818 -4.05798 0.149882 1 
6146 1 22.8496 0.603233 -5.67958 0.0444076 1 
6147 1 103.205 21.9709 -4.39684 0.0476793 1 
6148 1 105.191 20.7083 -6.02921 0.0238985 1 
6149 1 103.238 19.1189 -4.7069 0.0150005 1 
6150 1 105.197 17.8795 -6.34238 0.0137566 1 
6151 1 105.977 18.9798 -3.772 0.158745 1 
6152 1 107.899 17.7816 -5.48639 0.0868919 1 
6153 1 105.911 16.2014 -4.12506 0.203233 1 
6154 1 107.898 14.9346 -5.77977 0.0277396 1 
6155 1 108.592 16.0741 -3.35971 2.17464 5 
6156 1 7.99922 14.8502 -4.87386 0.0946722 1 
6157 1 108.615 13.2824 -3.51913 0.185761 1 
6158 1 8.0097 12.0268 -5.09541 0.0268782 1 
6159 1 8.62748 13.2711 -2.54458 0.297425 1 
6160 1 10.6769 11.9747 -4.13334 0.0554563 1 
6161 1 8.67897 10.3999 -2.81815 0.168935 1 
6162 1 10.686 9.11935 -4.48674 0.0235809 1 
6163 1 11.3138 10.2863 -1.94401 0.131672 1 
6164 1 13.3747 9.01737 -3.58576 0.0273006 1 
6165 1 11.3383 7.36852 -2.3437 0.158067 1 
6166 1 13.4096 6.1471 -3.94922 0.0103352 1 
6167 1 14.1027 7.28859 -1.49056 0.107575 1 
6168 1 16.1462 6.05577 -3.01989 0.0185989 1 
6169 1 14.1102 4.43421 -1.79145 0.139373 1 
6170 1 16.1685 3.20579 -3.33828 0.0390351 1 
6171 1 16.7973 4.36577 -0.800955 0.549697 1 
6172 1 18.9059 3.14116 -2.32149 0.429735 1 
6173 1 16.7702 1.53945 -1.08208 1.43738 5 
6174 1 18.8946 0.300996 -2.6434 0.757987 1 
6175 1 20.0171 1.54862 -0.218608 7.15277 2 
6176 1 21.7374 0.282438 -1.98369 6.1608 5 
6177 1 103.979 20.1887 -2.16727 0.295782 1 
6178 1 103.988 17.4114 -2.47066 0.273559 1 
6179 1 105.025 18.43 -0.0987235 8.57783 5 
6180 1 106.993 17.2316 -1.50152 7.02035 5 
6181 1 104.706 15.7785 -0.254483 6.63068 5 
6182 1 106.602 14.5177 -1.89995 0.933263 5 
6183 1 109.123 14.7216 -0.938147 7.25017 5 
6184 1 6.67385 11.8131 -1.15974 5.18632 5 
6185 1 9.23423 11.5034 -0.26535 3.40512 5 
6186 1 9.2615 8.50046 -0.652417 7.51361 5 
6187 1 12.0382 5.66877 -0.176074 5.64063 5 
7676 1 24.7069 8.77657 -14.9062 0.000126544 1 
7680 1 27.4274 5.83414 -14.3156 0.000137097 1 
7682 1 27.4268 2.98811 -14.6295 0.000113825 1 
7684 1 30.1487 2.88985 -13.7232 0.000193188 1 
7686 1 30.1473 0.0419122 -14.0414 0.000151251 1 
7697 1 109.739 26.0294 -14.6162 0.000175414 1 
7699 1 109.742 23.1819 -14.9354 0.000145021 1 
7701 1 112.464 23.0883 -14.0327 0.000175721 1 
7703 1 112.466 20.2362 -14.3505 0.000128116 1 
7705 1 12.5686 20.1438 -13.4432 0.000251703 1 
7707 1 12.5691 17.2894 -13.7565 0.000202718 1 
7709 1 15.2832 17.1955 -12.8506 0.000341714 1 
7710 1 17.2759 15.9295 -14.4659 0.000149062 1 
7711 1 15.2836 14.3437 -13.1572 0.000263494 1 
7712 1 17.2774 13.0805 -14.7728 0.000119461 1 
7713 1 17.9939 14.2466 -12.2562 0.000397496 1 
7714 1 19.9895 12.9831 -13.8765 0.000194543 1 
7715 1 17.9948 11.4026 -12.5581 0.000303941 1 
7716 1 19.9907 10.1394 -14.1815 0.000140699 1 
7717 1 20.7044 11.3069 -11.6623 0.000487168 1 
7718 1 22.7044 10.0431 -13.2881 0.000274013 1 
7719 1 20.7047 8.46832 -11.9685 0.000409115 1 
7720 1 22.7048 7.2007 -13.5966 0.000225177 1 
7721 1 23.4163 8.37486 -11.0808 0.000874505 1 
7722 1 25.4225 7.10389 -12.703 0.000348911 1 
7723 1 23.4173 5.53096 -11.3945 0.000706956 1 
7724 1 25.4227 4.25823 -13.016 0.000266517 1 
7725 1 26.1362 5.43359 -10.5066 0.000910432 1 
7726 1 28.1453 4.15948 -12.1162 0.000353273 1 
7727 1 26.137 2.58345 -10.823 0.000635041 1 
7728 1 28.1442 1.31122 -12.4339 0.000279552 1 
7729 1 28.8632 2.48196 -9.92461 0.000879409 1 
7730 1 30.8693 1.21241 -11.5245 0.000467294 1 
7731 1 103.014 31.488 -11.9405 0.000627427 1 
7732 1 105.014 30.2281 -13.5735 0.000320503 1 
7733 1 103.02 28.652 -12.2548 0.000601183 1 
7734 1 105.018 27.3882 -13.8894 0.000298142 1 
7735 1 105.728 28.5548 -11.3648 0.000982676 1 
7736 1 107.733 27.2924 -12.9969 0.000450962 1 
7737 1 105.734 25.7128 -11.6905 0.000876593 1 
7738 1 107.738 24.4471 -13.3192 0.000395496 1 
7739 1 108.448 25.6152 -10.8054 0.0012911 1 
7740 1 110.459 24.3523 -12.4235 0.000432966 1 
7741 1 108.456 22.7653 -11.1343 0.00102163 1 
7742 1 110.464 21.5008 -12.7455 0.000314059 1 
7743 1 111.181 22.6706 -10.2412 0.00101954 1 
7744 1 113.188 21.4085 -11.8408 0.00038397 1 
7745 1 111.188 19.8145 -10.5617 0.00069062 1 
7746 1 10.5728 18.5523 -12.1557 0.000328442 1 
7747 1 11.297 19.7251 -9.65249 0.000954467 1 
7748 1 13.2921 18.461 -11.244 0.000635328 1 
7749 1 11.2961 16.8659 -9.95627 0.00113701 1 
7750 1 13.2909 15.6055 -11.5497 0.000572004 1 
7751 1 14.012 16.7744 -9.03885 0.00174063 1 
7752 1 16.0021 15.5103 -10.6407 0.000822642 1 
7753 1 14.0082 13.9236 -9.32962 0.00210866 1 
7754 1 16.0013 12.664 -10.9388 0.000604961 1 
7755 1 16.7169 13.8253 -8.41587 0.00273634 1 
7756 1 18.7095 12.5669 -10.0341 0.00113051 1 
7757 1 16.714 10.9932 -8.70582 0.00119327 1 
7758 1 18.7091 9.73217 -10.3342 0.000867804 1 
7759 1 19.4211 10.9017 -7.79298 0.00358567 1 
7760 1 21.4147 9.64224 -9.44081 0.00137704 1 
7761 1 19.4212 8.07278 -8.10489 0.00336491 1 
7762 1 21.4151 6.80532 -9.75712 0.00144085 1 
7763 1 22.1211 7.99406 -7.22156 0.004042 1 
7764 1 24.1246 6.71549 -8.88281 0.00310416 1 
7765 1 22.1242 5.15021 -7.55847 0.00544587 1 
7766 1 24.1279 3.86145 -9.20224 0.00227899 1 
7767 1 24.8353 5.06181 -6.7089 0.0121147 1 
7768 1 26.8502 3.75997 -8.32175 0.00219493 1 
7769 1 24.8379 2.18616 -7.02111 0.0102569 1 
7770 1 26.8485 0.904279 -8.64033 0.00167513 1 
7771 1 27.5658 2.07313 -6.14993 0.0108435 1 
7772 1 29.5791 0.797385 -7.74257 0.00227064 1 
7773 1 103.729 29.8178 -9.71518 0.00186825 1 
7774 1 103.737 26.9809 -10.0438 0.00198809 1 
7775 1 104.442 28.149 -7.49023 0.00692695 1 
7776 1 106.438 26.8796 -9.16498 0.00290385 1 
7777 1 104.454 25.3018 -7.84498 0.00641034 1 
7778 1 106.449 24.03 -9.50339 0.00243395 1 
7779 1 107.146 25.1917 -6.98362 0.0109959 1 
7780 1 109.162 23.9277 -8.62983 0.00386428 1 
7781 1 107.165 22.3243 -7.33411 0.00751015 1 
7782 1 109.178 21.0734 -8.96193 0.0025992 1 
7783 1 109.884 22.216 -6.47416 0.0093079 1 
7784 1 111.908 20.9832 -8.06938 0.00279221 1 
7785 1 109.905 19.3718 -6.7979 0.0153242 1 
7786 1 111.912 18.1249 -8.37768 0.00276005 1 
7787 1 10.0175 19.3038 -5.89932 0.0164145 1 
7788 1 12.0182 18.0402 -7.45971 0.00349125 1 
7789 1 10.0014 16.444 -6.17748 0.011401 1 
7790 1 12.0111 15.1828 -7.73979 0.00480078 1 
7791 1 12.7164 16.3532 -5.25103 0.0378782 1 
7792 1 14.7217 15.0848 -6.81728 0.0146914 1 
7793 1 12.7102 13.5205 -5.48006 0.0140008 1 
7794 1 14.717 12.2588 -7.07981 0.00658094 1 
7795 1 15.419 13.4371 -4.51929 0.0590917 1 
7796 1 17.4228 12.1569 -6.16251 0.00593789 1 
7797 1 15.4021 10.6056 -4.84683 0.013814 1 
7798 1 17.423 9.33348 -6.4684 0.00527427 1 
7799 1 18.124 10.512 -3.90475 0.0291971 1 
7800 1 20.132 9.2595 -5.54358 0.0157508 1 
7801 1 18.1443 7.66979 -4.24669 0.0135007 1 
7802 1 20.1378 6.42134 -5.88061 0.0110252 1 
7803 1 20.8643 7.61825 -3.31686 0.0773987 1 
7804 1 22.8327 6.35649 -5.02187 0.0133285 1 
7805 1 20.867 4.76043 -3.67736 0.0609734 1 
7806 1 22.839 3.51478 -5.38321 0.0440229 1 
7807 1 23.5769 4.75461 -2.82182 0.19301 1 
7808 1 25.5603 3.40303 -4.57044 0.073337 1 
7809 1 23.6051 1.91123 -3.28321 0.566623 1 
7810 1 25.5568 0.518414 -4.83408 0.0751024 1 
7811 1 26.3551 1.80482 -2.34912 6.67656 5 
7812 1 28.2459 0.36591 -3.97086 0.0769537 1 
7813 1 103.213 27.731 -3.46489 0.708156 1 
7814 1 105.152 26.4713 -5.28421 0.0616725 1 
7815 1 103.199 24.8587 -3.97614 0.157925 1 
7816 1 105.168 23.5942 -5.67243 0.0231671 1 
7817 1 105.903 24.7081 -3.15223 0.686993 5 
7818 1 107.86 23.4575 -4.85151 0.0302201 1 
7819 1 105.89 21.8033 -3.56175 0.203754 1 
7820 1 107.899 20.5672 -5.18093 0.0908205 1 
7821 1 108.585 21.6567 -2.78966 0.679828 1 
7822 1 110.631 20.4899 -4.31376 0.145968 1 
7823 1 108.768 18.8325 -2.8853 0.892567 5 
7824 1 110.621 17.7224 -4.6036 0.197207 1 
7825 1 111.456 18.8204 -1.91161 8.7629 5 
7826 1 10.6997 17.6552 -3.74046 0.235009 1 
7827 1 8.55891 16.1757 -2.44361 5.99217 5 
7828 1 10.6748 14.7883 -3.92838 0.107055 1 
7829 1 11.3037 16.1155 -1.57286 7.2435 5 
7830 1 13.3883 14.714 -2.9498 0.245321 1 
7831 1 11.2748 13.2266 -1.55995 1.08805 5 
7832 1 13.3549 11.9044 -3.20813 0.101124 1 
7833 1 13.9313 13.2539 -0.556184 5.67001 5 
7834 1 16.0603 11.8128 -2.29742 0.12211 1 
7835 1 14.0173 10.2289 -1.09895 0.158283 1 
7836 1 16.1171 8.9337 -2.65979 0.0298889 1 
7837 1 16.821 10.1162 -0.181045 0.133614 1 
7838 1 18.8968 8.84658 -1.68669 0.0967225 1 
7839 1 16.8529 7.21866 -0.529452 0.0854245 1 
7840 1 18.8816 5.98463 -2.02958 0.151226 1 
7841 1 21.6554 6.02305 -1.12857 5.25592 5 
7842 1 19.8828 4.38387 0.154847 7.6095 2 
7843 1 21.7965 3.12495 -1.51104 5.71201 5 
7844 1 24.4713 3.26067 -0.485633 11.3613 5 
7845 1 24.3251 0.627106 -1.05779 14.0241 5 
7846 1 104.146 25.8163 -1.39794 1.26878 5 
7847 1 103.932 22.9765 -1.87786 0.331956 1 
7848 1 106.547 22.8543 -1.09196 7.61807 5 
7849 1 106.88 20.0991 -1.27008 6.16599 5 
7850 1 109.547 19.9695 -0.285872 7.85231 5 
7851 1 109.836 17.244 0.0835378 11.8545 5 
7852 1 9.10705 14.8166 -0.267237 9.15756 5 
9530 1 21.9849 17.4153 -14.8831 0.000206945 1 
9534 1 24.706 14.4653 -14.2972 0.000249768 1 
9536 1 24.7068 11.6201 -14.6004 0.000174178 1 
9538 1 27.4292 11.5207 -13.7007 0.000217606 1 
9540 1 27.4282 8.67799 -14.0058 0.000164966 1 
9542 1 30.1519 8.57828 -13.0969 0.000279416 1 
9543 1 32.1496 7.31108 -14.7043 0.000230403 1 
9544 1 30.1503 5.73512 -13.4077 0.000241245 1 
9546 1 32.8722 5.63599 -12.4907 0.000600952 1 
9547 1 34.8648 4.36975 -14.1058 0.000402664 1 
9548 1 32.8702 2.79207 -12.8088 0.000488382 1 
9549 1 34.8632 1.52528 -14.4243 0.000333115 1 
9550 1 35.5858 2.69596 -11.8912 0.00119182 1 
9551 1 37.5745 1.42849 -13.5213 0.000328282 1 
9558 1 107.014 34.6479 -14.5831 0.000240675 1 
9560 1 107.016 31.8075 -14.8874 0.000179847 1 
9562 1 109.736 31.7131 -13.9873 0.000207796 1 
9564 1 109.737 28.8728 -14.299 0.000186783 1 
9566 1 112.46 28.7806 -13.3928 0.000248231 1 
9568 1 112.462 25.9366 -13.712 0.000219564 1 
9570 1 115.184 25.8462 -12.8 0.000425505 1 
9571 1 14.5622 24.5812 -14.4148 0.000320722 1 
9572 1 12.568 22.9971 -13.1233 0.000335658 1 
9573 1 14.5622 21.7309 -14.7363 0.000226681 1 
9574 1 15.285 22.9077 -12.2118 0.000773718 1 
9575 1 17.2745 21.6378 -13.8356 0.000344514 1 
9576 1 15.2836 20.0519 -12.536 0.000502444 1 
9577 1 17.2747 18.7828 -14.1546 0.000217655 1 
9578 1 17.9924 19.9568 -11.6392 0.000777631 1 
9579 1 19.9856 18.6848 -13.2641 0.000403512 1 
9580 1 17.9927 17.0979 -11.9527 0.00052428 1 
9581 1 19.9877 15.831 -13.5726 0.000268536 1 
9582 1 20.7023 16.9963 -11.068 0.00106308 1 
9583 1 22.7029 15.7305 -12.6855 0.000571406 1 
9584 1 20.7041 14.147 -11.3648 0.000753001 1 
9585 1 22.7041 12.8847 -12.9853 0.000384864 1 
9586 1 23.4197 14.0477 -10.4814 0.0014656 1 
9587 1 25.4247 12.786 -12.0941 0.000621319 1 
9588 1 23.4176 11.2116 -10.7751 0.000994407 1 
9589 1 25.4233 9.94593 -12.3953 0.000451271 1 
9590 1 26.1392 11.1168 -9.88836 0.00158173 1 
9591 1 28.1486 9.84745 -11.4945 0.000496346 1 
9592 1 26.1365 8.27912 -10.1941 0.00129077 1 
9593 1 28.1465 7.00508 -11.8026 0.000428245 1 
9594 1 28.8663 8.17862 -9.29308 0.00131759 1 
9595 1 30.874 6.90432 -10.8881 0.000710299 1 
9596 1 28.8648 5.33144 -9.60689 0.00112918 1 
9597 1 30.8719 4.05942 -11.2041 0.000588672 1 
9598 1 31.5978 5.22744 -8.6839 0.00166972 1 
9599 1 33.5967 3.96084 -10.2768 0.00149037 1 
9600 1 31.5952 2.38005 -9.00557 0.00147523 1 
9601 1 33.5932 1.11601 -10.6016 0.00131674 1 
9602 1 34.3243 2.28489 -8.0608 0.0042879 1 
9603 1 36.3078 1.02431 -9.67423 0.00441667 1 
9604 1 103.001 37.1637 -11.35 0.00119746 1 
9605 1 105.007 35.9052 -12.9694 0.000649849 1 
9606 1 103.007 34.3229 -11.6406 0.000878203 1 
9607 1 105.011 33.0655 -13.2672 0.000444962 1 
9608 1 105.719 34.2236 -10.7571 0.00194162 1 
9609 1 107.729 32.9695 -12.3746 0.000606932 1 
9610 1 105.723 31.3899 -11.0521 0.00115852 1 
9611 1 107.73 30.1323 -12.6807 0.000488692 1 
9612 1 108.439 31.2957 -10.1664 0.00160521 1 
9613 1 110.452 30.0398 -11.7824 0.000524782 1 
9614 1 108.442 28.4585 -10.4801 0.00151062 1 
9615 1 110.455 27.1984 -12.1005 0.000493646 1 
9616 1 111.166 28.3661 -9.58741 0.00138788 1 
9617 1 113.181 27.1079 -11.1929 0.000578372 1 
9618 1 111.173 25.5207 -9.91324 0.00118968 1 
9619 1 113.185 24.2609 -11.5179 0.000508811 1 
9620 1 113.906 25.4334 -9.00177 0.00138144 1 
9621 1 13.2932 24.1738 -10.5997 0.00101198 1 
9622 1 113.912 22.5836 -9.33143 0.00128973 1 
9623 1 13.2935 21.3198 -10.9264 0.000825732 1 
9624 1 14.0227 22.5026 -8.40293 0.00288716 1 
9625 1 16.0077 21.2306 -10.0131 0.00175756 1 
9626 1 14.0186 19.6389 -8.73121 0.00209636 1 
9627 1 16.004 18.3678 -10.3349 0.00121394 1 
9628 1 16.7297 19.5441 -7.81702 0.00558131 1 
9629 1 18.7096 18.2658 -9.44432 0.00198413 1 
9630 1 16.7217 16.6751 -8.12841 0.00305069 1 
9631 1 18.71 15.4082 -9.74234 0.00159797 1 
9632 1 19.4317 16.5617 -7.24001 0.00740488 1 
9633 1 21.4201 15.3047 -8.86129 0.00323161 1 
9634 1 19.4278 13.7217 -7.50791 0.00628463 1 
9635 1 21.4177 12.4712 -9.14202 0.00187474 1 
9636 1 22.1351 13.6321 -6.62006 0.00766153 1 
9637 1 24.1303 12.3803 -8.26477 0.00359703 1 
9638 1 22.1243 10.819 -6.90281 0.00457983 1 
9639 1 24.1248 9.55331 -8.56457 0.00295738 1 
9640 1 24.8312 10.7398 -6.04717 0.00950477 1 
9641 1 26.8475 9.45992 -7.69063 0.00483102 1 
9642 1 24.8288 7.90923 -6.37034 0.00922342 1 
9643 1 26.8489 6.61543 -8.00667 0.0034029 1 
9644 1 27.5522 7.79898 -5.51925 0.0196538 1 
9645 1 29.5839 6.50319 -7.10513 0.00381216 1 
9646 1 27.5633 4.93932 -5.837 0.0118228 1 
9647 1 29.5847 3.64838 -7.422 0.0031485 1 
9648 1 30.3089 4.80426 -4.93557 0.011908 1 
9649 1 32.3249 3.54244 -6.48424 0.0044344 1 
9650 1 30.2987 1.94691 -5.24324 0.00844236 1 
9651 1 32.3144 0.695262 -6.81179 0.00299279 1 
9652 1 33.0395 1.85473 -4.28918 0.0116888 1 
9653 1 35.0467 0.610199 -5.84688 0.00958108 1 
9654 1 103.709 35.4813 -9.12927 0.00349566 1 
9655 1 103.719 32.6482 -9.40892 0.00229025 1 
9656 1 104.418 33.82 -6.88585 0.00775509 1 
9657 1 106.425 32.5489 -8.53616 0.00477633 1 
9658 1 104.43 30.9813 -7.16568 0.00977828 1 
9659 1 106.43 29.7181 -8.83737 0.00326142 1 
9660 1 107.126 30.8761 -6.31461 0.0195161 1 
9661 1 109.143 29.6218 -7.96955 0.00536678 1 
9662 1 107.133 28.0385 -6.63764 0.0107933 1 
9663 1 109.151 26.7785 -8.29592 0.004743 1 
9664 1 109.846 27.9298 -5.80159 0.0178809 1 
9665 1 111.883 26.6851 -7.40965 0.00303485 1 
9666 1 109.86 25.0788 -6.13971 0.0156789 1 
9667 1 111.894 23.8361 -7.74061 0.0028734 1 
9668 1 112.598 25.0003 -5.24623 0.010404 1 
9669 1 114.635 23.7611 -6.81744 0.00389673 1 
9670 1 112.622 22.1493 -5.57948 0.0128163 1 
9671 1 12.0236 20.9074 -7.15205 0.00349952 1 
9672 1 12.7398 22.0999 -4.64169 0.0380675 1 
9673 1 14.7518 20.8326 -6.21484 0.0104417 1 
9674 1 12.7417 19.2425 -4.97546 0.0170614 1 
9675 1 14.7351 17.9501 -6.53582 0.00699784 1 
9676 1 15.4641 19.1514 -4.04678 0.219318 1 
9677 1 17.4528 17.8298 -5.62684 0.0393913 1 
9678 1 15.4431 16.2292 -4.34441 0.2159 1 
9679 1 17.439 14.973 -5.905 0.0230116 1 
9680 1 18.2185 16.0866 -3.4211 0.252025 1 
9681 1 20.1647 14.8668 -4.98847 0.0279892 1 
9682 1 18.1226 13.3168 -3.61518 0.0575411 1 
9683 1 20.1373 12.0646 -5.22881 0.0222873 1 
9684 1 20.8512 13.2462 -2.66289 0.164384 1 
9685 1 22.8375 12.0082 -4.35292 0.0238243 1 
9686 1 20.8803 10.427 -2.93997 0.141592 1 
9687 1 22.8355 9.19065 -4.66927 0.0152325 1 
9688 1 23.5706 10.4357 -2.10093 0.341515 1 
9689 1 25.5307 9.10944 -3.85159 0.0555195 1 
9690 1 23.5588 7.59176 -2.4453 0.201148 1 
9691 1 25.528 6.27216 -4.21064 0.0738598 1 
9692 1 26.2798 7.39996 -1.72241 2.29218 5 
9693 1 28.2765 6.08646 -3.39307 0.0821571 1 
9694 1 26.2634 4.60244 -2.15052 5.62845 5 
9695 1 28.2935 3.21476 -3.6851 0.104809 1 
9696 1 28.9113 4.2439 -1.23142 5.38471 5 
9697 1 31.0153 3.10498 -2.76931 0.0839654 1 
9698 1 29.024 1.46958 -1.45206 11.0274 5 
9699 1 30.9824 0.239655 -3.08019 0.0809376 1 
9700 1 31.6178 1.39634 -0.593608 6.86648 5 
9701 1 33.6943 0.172353 -2.09973 0.167589 1 
9702 1 103.145 33.4887 -2.91878 0.378855 1 
9703 1 105.128 32.1938 -4.65366 0.0959573 1 
9704 1 103.181 30.6349 -3.19065 0.548906 1 
9705 1 105.145 29.3101 -4.91566 0.116117 1 
9706 1 105.965 30.6606 -2.47554 6.03867 5 
9707 1 107.842 29.1664 -4.12517 0.162737 1 
9708 1 105.972 27.5786 -2.70607 1.09986 5 
9709 1 107.847 26.3304 -4.46111 0.084411 1 
9710 1 108.562 27.316 -1.8292 7.5382 5 
9711 1 110.537 26.2215 -3.67049 0.135067 1 
9712 1 108.543 24.5403 -2.36261 5.67283 5 
9713 1 110.572 23.3449 -4.01967 0.0475849 1 
9714 1 111.161 24.5103 -1.58714 6.29293 5 
9715 1 113.283 23.329 -3.09084 0.119773 1 
9716 1 111.269 21.5993 -1.88146 6.51794 5 
9717 1 10.7175 20.4768 -3.40826 0.171586 1 
9718 1 11.2117 21.6198 -0.91408 6.15056 5 
9719 1 13.4367 20.4752 -2.46011 0.994134 5 
9720 1 11.5251 18.8138 -1.30239 9.85428 5 
9721 1 13.4642 17.5672 -2.85116 0.532568 1 
9722 1 14.5954 18.8021 -0.617194 8.26366 5 
9723 1 16.3244 17.4179 -2.04556 5.98879 5 
9724 1 13.964 16.1789 -0.518901 6.77188 5 
9725 1 16.086 14.6657 -1.90673 1.6977 5 
9726 1 18.8228 14.518 -1.05805 1.55731 5 
9727 1 16.7863 12.9859 0.197511 2.00957 5 
9728 1 18.8659 11.6864 -1.36823 0.121216 1 
9729 1 21.6136 11.7588 -0.319779 1.43748 5 
9730 1 21.6958 8.86508 -0.56787 4.68654 5 
9731 1 24.5827 8.79867 0.0353981 8.76329 5 
9732 1 24.3107 6.04809 -0.148684 9.98773 5 
9733 1 104.247 31.9667 -0.735883 6.89375 2 
9734 1 104.367 29.029 -1.07015 6.69566 5 
9735 1 106.844 28.1452 0.188137 6.44534 5 
9736 1 107.048 25.3928 -0.160944 10.7649 5 
9737 1 109.096 22.6372 -0.37934 13.822 5 
11563 1 39.5697 5.84689 -14.5165 0.000180476 1 
11565 1 39.5694 3.00537 -14.8319 0.000182909 1 
11567 1 42.2838 2.90739 -13.9393 0.000333481 1 
11569 1 42.2838 0.0622401 -14.2602 0.000369723 1 
11598 1 19.2674 26.0667 -14.8184 0.000210506 1 
11602 1 21.9813 23.1219 -14.251 0.000425291 1 
11604 1 21.9828 20.2687 -14.5706 0.000302068 1 
11606 1 24.7024 20.1684 -13.682 0.000389122 1 