ITEM: TIMESTEP
0
ITEM: NUMBER OF ATOMS
6402
ITEM: BOX BOUNDS pp pp ss
0.0000000000000000e+00 6.1421291097000001e+01
0.0000000000000000e+00 5.8128435381999999e+01
-9.9851980378304262e+01 1.0649205506016889e+02
ITEM: ATOMS id type x y z c_csym c_cna 
18095 1 2.93491 1.57251 -14.7438 7.67129e-05 1 
18096 1 4.40212 3.97341 -14.1963 8.28679e-05 1 
16765 1 7.87581 1.99589 -14.8688 9.76647e-05 1 
15252 1 12.816 2.41294 -14.9961 8.58336e-05 1 
12011 1 18.8259 0.286819 -14.3473 0.000103043 1 
10342 1 25.2344 3.11328 -13.9333 0.000103296 1 
10360 1 23.7666 0.711288 -14.4771 9.04332e-05 1 
8693 1 28.707 1.14221 -14.6022 7.82547e-05 1 
8694 1 30.1741 3.54504 -14.0564 9.09306e-05 1 
18070 1 3.33253 6.50779 -14.9726 5.52844e-05 1 
16744 1 9.3421 4.39458 -14.3227 9.83129e-05 1 
15226 1 15.7514 7.20414 -13.9067 7.20954e-05 1 
15253 1 14.2831 4.80995 -14.4517 6.07565e-05 1 
13633 1 19.2241 5.22758 -14.5802 4.90851e-05 1 
13634 1 20.6923 7.62251 -14.0347 7.12108e-05 1 
11961 1 25.6328 8.04814 -14.1637 8.13499e-05 1 
11991 1 24.1646 5.65125 -14.7085 5.04899e-05 1 
10316 1 29.1049 6.08052 -14.8346 4.79162e-05 1 
18041 1 6.27037 11.302 -13.8899 0.000103706 1 
18071 1 4.80121 8.90502 -14.429 8.45394e-05 1 
16711 1 9.74164 9.32633 -14.5581 8.93546e-05 1 
16712 1 11.2118 11.7219 -14.0221 9.36461e-05 1 
15188 1 16.1544 12.1379 -14.1498 6.80781e-05 1 
15225 1 14.684 9.74282 -14.6884 5.95569e-05 1 
13597 1 19.6249 10.1609 -14.8163 5.35703e-05 1 
11960 1 24.565 10.5848 -14.9461 5.55638e-05 1 
10317 1 30.573 8.47915 -14.2911 6.8002e-05 1 
20104 1 0.260963 13.4097 -14.5473 3.89184e-05 1 
20105 1 1.73013 15.8109 -14.0125 3.68125e-05 1 
19162 1 6.67145 16.2402 -14.1424 6.29942e-05 1 
19189 1 5.20261 13.8392 -14.6776 3.20594e-05 1 
18005 1 10.1437 14.2627 -14.8075 5.5693e-05 1 
16670 1 15.0857 14.6804 -14.9344 4.64209e-05 1 
13598 1 21.0946 12.5563 -14.2779 5.05311e-05 1 
11920 1 26.0344 12.9829 -14.4086 5.17035e-05 1 
20083 1 0.662119 18.3482 -14.7972 3.67912e-05 1 
20084 1 2.13269 20.7505 -14.2629 8.93088e-05 1 
19161 1 5.60419 18.7784 -14.9262 4.80768e-05 1 
18006 1 11.6126 16.6617 -14.2682 9.04509e-05 1 
16621 1 16.5538 17.0774 -14.3938 6.29368e-05 1 
15140 1 21.4945 17.4953 -14.5234 2.96816e-05 1 
15082 1 22.9631 19.892 -13.9845 4.35939e-05 1 
13500 1 26.4352 17.9222 -14.6542 3.80997e-05 1 
13501 1 27.9043 20.3227 -14.1141 6.83758e-05 1 
19127 1 7.07469 21.1784 -14.3853 7.1218e-05 1 
17962 1 12.0139 21.597 -14.5059 7.02018e-05 1 
16562 1 16.9532 22.0125 -14.6334 6.82021e-05 1 
17913 1 13.4836 23.9914 -13.9657 0.000139885 1 
15081 1 21.8947 22.4323 -14.767 5.03272e-05 1 
16563 1 18.423 24.4074 -14.0974 0.000100557 1 
15014 1 23.3653 24.8305 -14.2322 8.00589e-05 1 
13434 1 26.8368 22.8606 -14.898 6.01814e-05 1 
20724 1 4.00629 28.0975 -13.9679 0.000116719 1 
20744 1 2.53664 25.6937 -14.5097 0.000105882 1 
20031 1 7.47875 26.1174 -14.63 8.01091e-05 1 
19089 1 12.4177 26.5341 -14.7533 8.8808e-05 1 
20032 1 8.94709 28.5181 -14.0905 0.000142491 1 
17859 1 17.3566 26.951 -14.8832 5.97864e-05 1 
19044 1 13.8863 28.9334 -14.2171 0.000131595 1 
13435 1 28.307 25.2624 -14.3599 8.12075e-05 1 
20723 1 2.93491 30.6367 -14.7438 7.67129e-05 1 
20698 1 4.40212 33.0376 -14.1963 8.28679e-05 1 
19994 1 7.87581 31.0601 -14.8688 9.76647e-05 1 
19043 1 12.816 31.4772 -14.9961 8.58336e-05 1 
17860 1 18.8259 29.351 -14.3473 0.000103043 1 
16428 1 23.7666 29.7755 -14.4771 9.04332e-05 1 
16429 1 25.2344 32.1775 -13.9333 0.000103296 1 
14852 1 30.1741 32.6093 -14.0564 9.09306e-05 1 
14937 1 28.707 30.2064 -14.6022 7.82547e-05 1 
21150 1 3.33253 35.572 -14.9726 5.52844e-05 1 
19995 1 9.3421 33.4588 -14.3227 9.83129e-05 1 
18992 1 14.2831 33.8742 -14.4517 6.07565e-05 1 
18993 1 15.7514 36.2684 -13.9067 7.20954e-05 1 
17732 1 20.6923 36.6867 -14.0347 7.12108e-05 1 
17798 1 19.2241 34.2918 -14.5802 4.90851e-05 1 
16351 1 24.1646 34.7155 -14.7085 5.04899e-05 1 
16352 1 25.6328 37.1124 -14.1637 8.13499e-05 1 
14851 1 29.1049 35.1447 -14.8346 4.79162e-05 1 
21127 1 4.80121 37.9692 -14.429 8.45394e-05 1 
21128 1 6.27037 40.3662 -13.8899 0.000103706 1 
20627 1 11.2118 40.7862 -14.0221 9.36461e-05 1 
20666 1 9.74164 38.3905 -14.5581 8.93546e-05 1 
19906 1 14.684 38.807 -14.6884 5.95569e-05 1 
19907 1 16.1544 41.2021 -14.1498 6.80781e-05 1 
18936 1 19.6249 39.2251 -14.8163 5.35703e-05 1 
17659 1 24.565 39.649 -14.9461 5.55638e-05 1 
14759 1 30.573 37.5434 -14.2911 6.8002e-05 1 
21365 1 1.73013 44.8751 -14.0125 3.68125e-05 1 
21384 1 0.260963 42.4739 -14.5473 3.89184e-05 1 
21098 1 5.20261 42.9035 -14.6776 3.20594e-05 1 
21099 1 6.67145 45.3044 -14.1424 6.29942e-05 1 
20626 1 10.1437 43.3269 -14.8075 5.5693e-05 1 
19850 1 15.0857 43.7446 -14.9344 4.64209e-05 1 
18873 1 21.0946 41.6206 -14.2779 5.05311e-05 1 
17660 1 26.0344 42.0471 -14.4086 5.17035e-05 1 
21474 1 2.13269 49.8147 -14.2629 8.93088e-05 1 
21490 1 0.662119 47.4124 -14.7972 3.67912e-05 1 
21339 1 5.60419 47.8426 -14.9262 4.80768e-05 1 
20582 1 11.6126 45.7259 -14.2682 9.04509e-05 1 
19851 1 16.5538 46.1416 -14.3938 6.29368e-05 1 
18802 1 21.4945 46.5595 -14.5234 2.96816e-05 1 
18803 1 22.9631 48.9563 -13.9845 4.35939e-05 1 
17580 1 26.4352 46.9864 -14.6542 3.80997e-05 1 
17496 1 27.9043 49.3869 -14.1141 6.83758e-05 1 
21340 1 7.07469 50.2426 -14.3853 7.1218e-05 1 
21027 1 12.0139 50.6612 -14.5059 7.02018e-05 1 
20532 1 16.9532 51.0768 -14.6334 6.82021e-05 1 
21028 1 13.4836 53.0556 -13.9657 0.000139885 1 
19732 1 21.8947 51.4965 -14.767 5.03272e-05 1 
20486 1 18.423 53.4716 -14.0974 0.000100557 1 
19733 1 23.3653 53.8947 -14.2322 8.00589e-05 1 
18731 1 26.8368 51.9249 -14.898 6.01814e-05 1 
21463 1 2.53664 54.7579 -14.5097 0.000105882 1 
21464 1 4.00629 57.1617 -13.9679 0.000116719 1 
21316 1 7.47875 55.1816 -14.63 8.01091e-05 1 
20993 1 12.4177 55.5983 -14.7533 8.8808e-05 1 
21295 1 8.94709 57.5823 -14.0905 0.000142491 1 
20485 1 17.3566 56.0153 -14.8832 5.97864e-05 1 
20994 1 13.8863 57.9976 -14.2171 0.000131595 1 
18662 1 28.307 54.3266 -14.3599 8.12075e-05 1 
18097 1 1.99914 3.41109 -12.7489 0.00017282 1 
18113 1 0.531675 1.00792 -13.2986 0.000130057 1 
18114 1 3.07099 0.875827 -11.979 0.000281733 1 
18115 1 0.66906 0.310929 -10.5364 0.000282068 1 
18116 1 2.13569 2.7193 -9.98099 0.000809042 1 
16766 1 5.4733 1.43649 -13.4228 0.000180086 1 
16767 1 6.93875 3.83729 -12.8735 0.000200555 1 
16768 1 8.01151 1.29847 -12.1031 0.000538898 1 
16770 1 7.07249 3.14675 -10.1041 0.000965448 1 
16783 1 5.61022 0.742689 -10.6603 0.0010291 1 
18099 1 4.5366 3.27936 -11.4258 0.000303001 1 
15273 1 10.4135 1.8547 -13.5485 0.000230636 1 
15274 1 12.9516 1.71083 -12.2299 0.000524067 1 
15275 1 10.5511 1.15613 -10.7868 0.00148166 1 
15276 1 12.0123 3.5566 -10.2323 0.00127006 1 
16769 1 9.47509 3.69844 -11.5523 0.00045099 1 
13657 1 15.3537 2.26875 -13.6768 0.000166943 1 
13661 1 16.9549 3.96156 -10.3615 0.000526492 1 
13675 1 15.4906 1.56383 -10.9137 0.000901816 1 
15256 1 14.4166 4.10763 -11.6816 0.000325943 1 
12012 1 20.294 2.68708 -13.8055 0.000119157 1 
12013 1 21.3641 0.1429 -13.03 0.000197388 1 
12015 1 20.4302 1.97871 -11.0414 0.000567439 1 
13659 1 17.8917 2.12368 -12.3585 0.000304519 1 
13676 1 18.0298 1.41594 -9.59914 0.00160611 1 
10361 1 26.3051 0.572719 -13.1577 0.000171625 1 
10362 1 23.9035 0.000699502 -11.7136 0.00037879 1 
10363 1 25.3703 2.40684 -11.168 0.000496393 1 
12014 1 22.8319 2.54516 -12.4866 0.000232618 1 
12017 1 22.9697 1.83522 -9.72583 0.00111479 1 
8697 1 30.309 2.84693 -11.2866 0.000588346 1 
8712 1 28.8432 0.438689 -11.8359 0.000320788 1 
10344 1 27.7721 2.9776 -12.6116 0.000227552 1 
10364 1 27.9083 2.27639 -9.84842 0.00144664 1 
18098 1 3.46579 5.81044 -12.1975 0.000182193 1 
19228 1 0.928624 5.94334 -13.5219 0.000109795 1 
19229 1 1.06266 5.24627 -10.7466 0.00041173 1 
19230 1 2.53005 7.6442 -10.1978 0.00068532 1 
18072 1 5.86905 6.37147 -13.6482 0.000119883 1 
16746 1 8.40413 6.23337 -12.3234 0.000270961 1 
18074 1 4.93333 8.20707 -11.6494 0.000358003 1 
18076 1 7.46574 8.07052 -10.3198 0.000923329 1 
18100 1 6.00026 5.67797 -10.87 0.000481405 1 
16745 1 10.8092 6.7896 -13.7769 0.000117044 1 
15254 1 11.879 4.25233 -13.0016 0.000180422 1 
16748 1 10.9391 6.09049 -10.9998 0.000686422 1 
13658 1 16.8205 4.66569 -13.1306 0.000114806 1 
15255 1 13.346 6.64497 -12.4546 0.00019097 1 
15257 1 15.8828 6.49872 -11.1305 0.000329797 1 
15258 1 13.4749 5.94371 -9.67703 0.00110385 1 
11992 1 21.7612 5.08494 -13.2584 9.84658e-05 1 
12016 1 21.8955 4.37708 -10.4876 0.000407594 1 
13635 1 18.2882 7.0588 -12.5825 0.000141311 1 
13637 1 20.8247 6.91317 -11.2577 0.000275778 1 
13660 1 19.358 4.52105 -11.8091 0.000214283 1 
13662 1 18.4192 6.3512 -9.80442 0.00059184 1 
11993 1 23.229 7.47977 -12.711 0.000150704 1 
11994 1 24.2984 4.94453 -11.9364 0.000202819 1 
11995 1 25.7656 7.34016 -11.3864 0.000312791 1 
11996 1 23.3612 6.76901 -9.93218 0.000549557 1 
10318 1 28.1695 7.91094 -12.8392 0.000161892 1 
10320 1 30.7056 7.77736 -11.5129 0.000312168 1 
10343 1 26.7017 5.5132 -13.3856 0.000101787 1 
10345 1 29.2384 5.37898 -12.0598 0.000212665 1 
10346 1 26.8357 4.80932 -10.6129 0.000451278 1 
10347 1 28.3016 7.20642 -10.0591 0.000704802 1 
19210 1 1.32929 10.8742 -13.7619 8.05249e-05 1 
19211 1 2.39733 8.34111 -12.9772 0.000150671 1 
19212 1 3.86704 10.739 -12.4371 0.00020793 1 
19213 1 1.46286 10.1731 -10.9865 0.00038008 1 
19215 1 4.00059 10.0422 -9.65488 0.00151624 1 
18073 1 7.337 8.76678 -13.1036 0.000200732 1 
18075 1 6.40257 10.602 -11.1096 0.000598273 1 
18043 1 8.80647 11.1616 -12.5671 0.000236899 1 
16713 1 12.2788 9.18221 -13.2362 0.00016936 1 
16715 1 11.3447 11.0163 -11.2497 0.000690832 1 
16747 1 9.8721 8.6247 -11.7795 0.000456443 1 
16749 1 12.4087 8.47653 -10.4579 0.00107594 1 
18077 1 8.9363 10.4595 -9.78619 0.00149267 1 
15227 1 17.2213 9.59685 -13.3641 0.000121586 1 
15228 1 14.8164 9.03516 -11.912 0.000335736 1 
15229 1 16.2894 11.4269 -11.3752 0.000433876 1 
15230 1 17.3525 8.88603 -10.584 0.000581474 1 
16714 1 13.7507 11.5762 -12.7004 0.000192559 1 
16717 1 13.885 10.8654 -9.92682 0.00137919 1 
13601 1 21.2295 11.8421 -11.502 0.000250896 1 
13636 1 19.7579 9.44967 -12.0385 0.000244923 1 
15190 1 18.6922 11.9905 -12.8259 0.000139597 1 
15231 1 18.8265 11.2743 -10.0482 0.000820494 1 
11963 1 24.6983 9.8738 -12.1689 0.000232413 1 
11964 1 26.1687 12.2713 -11.6336 0.0002619 1 
13599 1 22.1617 10.0165 -13.4926 0.000115688 1 
13600 1 23.6319 12.4121 -12.9558 0.000103883 1 
13603 1 23.7671 11.6949 -10.179 0.000498248 1 
13638 1 22.2942 9.30255 -10.7126 0.000496391 1 
11962 1 27.1018 10.4454 -13.6232 0.000105222 1 
10319 1 29.6383 10.3099 -12.3006 0.000150554 1 
11965 1 27.2343 9.7359 -10.8445 0.000488673 1 
11966 1 28.7046 12.1383 -10.3145 0.000460069 1 
19190 1 2.79877 13.2743 -13.2262 6.0425e-05 1 
19191 1 4.26711 15.6764 -12.6926 8.77002e-05 1 
19214 1 2.9331 12.5758 -10.4527 0.000396473 1 
20107 1 1.86322 15.1101 -11.2404 0.00019107 1 
20121 1 0.394747 12.7058 -11.7744 0.000155946 1 
19194 1 4.39931 14.9816 -9.92322 0.000671708 1 
18042 1 7.73939 13.7008 -13.356 9.19276e-05 1 
18045 1 7.87221 12.9998 -10.5821 0.00107747 1 
19192 1 5.33612 13.1387 -11.9035 0.000189779 1 
19193 1 6.80363 15.5423 -11.3738 0.000471093 1 
16671 1 12.682 14.1199 -13.4866 0.000140892 1 
16716 1 12.8181 13.4147 -10.7215 0.000828425 1 
18007 1 9.20798 16.1026 -12.8212 0.000236917 1 
18009 1 11.7456 15.9621 -11.5009 0.00064681 1 
18044 1 10.2767 13.5607 -12.0389 0.00045747 1 
18046 1 9.34046 15.4076 -10.0579 0.00185142 1 
16672 1 14.1501 16.5182 -12.9458 0.000209657 1 
16673 1 15.2213 13.9734 -12.1649 0.000277886 1 
16674 1 16.6884 16.3713 -11.6242 0.000411789 1 
16675 1 14.2855 15.8165 -10.1816 0.00138958 1 
15189 1 17.6238 14.5345 -13.6122 8.60525e-05 1 
15191 1 20.162 14.3867 -12.2904 0.00014225 1 
15192 1 17.7608 13.8231 -10.8425 0.000487415 1 
15193 1 19.2281 16.2207 -10.3043 0.000672161 1 
13554 1 22.5639 14.9536 -13.7413 4.88633e-05 1 
13556 1 25.1017 14.8112 -12.4208 0.000125586 1 
13602 1 22.7008 14.2389 -10.9699 0.00024176 1 
13604 1 25.24 14.0945 -9.64907 0.000665889 1 
11921 1 27.5035 15.3838 -13.8719 6.22098e-05 1 
11922 1 28.5711 12.8459 -13.0876 8.95727e-05 1 
11923 1 30.04 15.25 -12.5504 0.000135021 1 
11924 1 27.6388 14.6749 -11.1008 0.000294022 1 
11926 1 30.1748 14.5482 -9.78101 0.000664833 1 
20085 1 3.19947 18.2131 -13.4778 7.84538e-05 1 
20087 1 2.2651 20.0483 -11.4937 0.000359776 1 
20106 1 0.795234 17.6441 -12.0254 0.000150887 1 
20108 1 3.33075 17.5152 -10.7072 0.000379938 1 
19163 1 8.14046 18.6409 -13.602 0.000101703 1 
19164 1 5.7358 18.0796 -12.1559 0.000204489 1 
19165 1 7.20543 20.4798 -11.6108 0.000344632 1 
19166 1 8.27039 17.9462 -10.8307 0.000604203 1 
20086 1 4.67039 20.6155 -12.9404 0.000176214 1 
20089 1 4.80059 19.9198 -10.1687 0.000820138 1 
17963 1 13.0805 19.0585 -13.7241 9.52077e-05 1 
18008 1 10.6756 18.5015 -12.2763 0.000252472 1 
19167 1 9.73668 20.3404 -10.2769 0.000937509 1 
18010 1 13.2106 18.3588 -10.951 0.000585308 1 
16623 1 15.6163 18.9132 -12.4 0.000207221 1 
16676 1 15.7468 18.212 -9.62769 0.00114097 1 
17967 1 14.6748 20.7478 -10.399 0.000831379 1 
16622 1 18.0211 19.4725 -13.8517 6.8826e-05 1 
15141 1 19.0914 16.9311 -13.0725 0.000106732 1 
15142 1 20.5586 19.3256 -12.5314 0.000101889 1 
15143 1 21.6302 16.7836 -11.7526 0.000154162 1 
15145 1 20.6928 18.613 -9.75964 0.00044134 1 
16625 1 18.1532 18.7648 -11.0784 0.000343679 1 
13502 1 25.5015 19.7503 -12.664 0.000106096 1 
13555 1 24.0326 17.3519 -13.2034 6.17276e-05 1 
13558 1 24.1701 16.6376 -10.4331 0.000315527 1 
13559 1 25.6382 19.0356 -9.89102 0.00038377 1 
15144 1 23.0979 19.1787 -11.2123 0.000155976 1 
11871 1 28.9721 17.7862 -13.3319 8.70021e-05 1 
11872 1 30.4402 20.1889 -12.7887 0.000136186 1 
11875 1 30.5733 19.4871 -10.0116 0.000552287 1 
11925 1 29.1073 17.0811 -10.5597 0.000375801 1 
13504 1 28.0391 19.6143 -11.3402 0.000260088 1 
13557 1 26.5706 17.2126 -11.8826 0.000157655 1 
20061 1 3.60474 23.1536 -13.7264 0.000140847 1 
20088 1 3.7384 22.4535 -10.9589 0.000657563 1 
20762 1 1.19959 22.5853 -12.282 0.000292956 1 
20763 1 0.267624 24.4214 -10.308 0.000907853 1 
19128 1 8.54554 23.5762 -13.8434 0.000125799 1 
19131 1 8.67656 22.8737 -11.0651 0.000668115 1 
20063 1 6.14257 23.0159 -12.3987 0.000251179 1 
20065 1 5.21303 24.8557 -10.4172 0.00102254 1 
20090 1 6.27209 22.3186 -9.62058 0.00149537 1 
17965 1 12.1429 20.8945 -11.7274 0.000373033 1 
19129 1 9.60983 21.0379 -13.057 0.000150042 1 
19130 1 11.0803 23.4314 -12.5143 0.000321952 1 
19133 1 11.2058 22.7267 -9.7283 0.00185628 1 
16624 1 17.083 21.3039 -11.856 0.000310936 1 
17915 1 16.0181 23.8435 -12.6417 0.00028243 1 
17964 1 14.5484 21.4517 -13.1799 0.000163652 1 
17966 1 13.6124 23.2832 -11.1847 0.000755691 1 
17968 1 16.1434 23.1313 -9.85856 0.00137464 1 
16564 1 19.4895 21.866 -13.3124 0.000118441 1 
16565 1 20.9603 24.2607 -12.7792 0.000171549 1 
16566 1 18.5532 23.6935 -11.3213 0.00049263 1 
16568 1 21.0917 23.5418 -10.0063 0.000763555 1 
16626 1 19.6196 21.1532 -10.5361 0.000493758 1 
15084 1 22.0276 21.7189 -11.9938 0.000191063 1 
15016 1 25.9044 24.6895 -12.9124 0.000176414 1 
15083 1 24.4331 22.2893 -13.4474 0.000105999 1 
15085 1 23.5001 24.1147 -11.4626 0.000331466 1 
15086 1 24.5679 21.5732 -10.6748 0.000406035 1 
15087 1 26.0415 23.972 -10.1424 0.000807448 1 
13436 1 29.3739 22.7242 -13.5737 0.000119682 1 
13438 1 28.4426 24.5533 -11.5885 0.000348758 1 
13503 1 26.9717 22.1498 -12.1252 0.00024732 1 
13505 1 29.5076 22.0173 -10.7974 0.000509173 1 
20745 1 0.131995 25.1256 -13.0661 0.000231201 1 
20746 1 1.60322 27.5337 -12.5261 0.000272478 1 
20747 1 2.67311 24.9929 -11.747 0.000421201 1 
20748 1 4.14442 27.3995 -11.2053 0.000469116 1 
20749 1 1.74183 26.8377 -9.76985 0.00124649 1 
20033 1 6.54568 27.9591 -12.6461 0.000254281 1 
20062 1 5.07656 25.5561 -13.1862 0.000154977 1 
20064 1 7.61477 25.4145 -11.8592 0.000405902 1 
20066 1 6.6854 27.2598 -9.88376 0.00128674 1 
19090 1 10.0163 25.9735 -13.3049 0.000207962 1 
19091 1 11.4852 28.3734 -12.7697 0.00032619 1 
19092 1 12.5522 25.8254 -11.9791 0.000550665 1 
19094 1 11.6248 27.6653 -10.005 0.00178218 1 
19132 1 10.151 25.2658 -10.5295 0.00138248 1 
20035 1 9.0852 27.8157 -11.3255 0.000737664 1 
17861 1 16.4237 28.787 -12.8988 0.000240361 1 
17914 1 14.9539 26.3872 -13.4313 0.000175219 1 
17916 1 17.4899 26.2385 -12.1121 0.000299042 1 
17917 1 15.0861 25.6736 -10.6556 0.00116703 1 
17918 1 16.5604 28.0742 -10.1356 0.00116303 1 
19093 1 14.0229 28.2253 -11.4512 0.000652591 1 
16498 1 19.8938 26.8054 -13.5652 0.000114215 1 
16502 1 21.5018 28.4928 -10.2702 0.000869903 1 
16567 1 20.0276 26.0887 -10.7977 0.000517433 1 
17863 1 18.9617 28.6399 -11.5831 0.000461934 1 
15015 1 24.8361 27.2323 -13.6971 0.000121643 1 
15018 1 24.974 26.5174 -10.9328 0.000533183 1 
16500 1 22.4328 26.6603 -12.2492 0.000235366 1 
13362 1 29.7762 27.6666 -13.8206 0.000100424 1 
15019 1 26.4437 28.9274 -10.3963 0.00073789 1 
13439 1 29.9123 26.962 -11.0515 0.000395998 1 
15017 1 27.3752 27.0943 -12.3766 0.000229771 1 
15020 1 27.5149 26.3807 -9.61095 0.00114191 1 
20726 1 3.07099 29.94 -11.979 0.000281733 1 
21170 1 0.531675 30.0721 -13.2986 0.000130057 1 
21171 1 1.99914 32.4753 -12.7489 0.00017282 1 
21173 1 2.13569 31.7835 -9.98099 0.000809042 1 
21186 1 0.66906 29.3751 -10.5364 0.000282068 1 
20034 1 8.01151 30.3627 -12.1031 0.000538898 1 
20700 1 6.93875 32.9015 -12.8735 0.000200555 1 
20725 1 5.4733 30.5007 -13.4228 0.000180086 1 
20727 1 4.5366 32.3436 -11.4258 0.000303001 1 
20728 1 5.61022 29.8069 -10.6603 0.0010291 1 
20729 1 7.07249 32.211 -10.1041 0.000965448 1 
19046 1 12.9516 30.7751 -12.2299 0.000524067 1 
19996 1 10.4135 30.9189 -13.5485 0.000230636 1 
19998 1 9.47509 32.7627 -11.5523 0.00045099 1 
20000 1 12.0123 32.6208 -10.2323 0.00127006 1 
20036 1 10.5511 30.2203 -10.7868 0.00148166 1 
19045 1 15.3537 31.333 -13.6768 0.000166943 1 
19047 1 14.4166 33.1718 -11.6816 0.000325943 1 
19048 1 15.4906 30.6281 -10.9137 0.000901816 1 
19049 1 16.9549 33.0258 -10.3615 0.000526492 1 
17799 1 20.294 31.7513 -13.8055 0.000119157 1 
16499 1 21.3641 29.2071 -13.03 0.000197388 1 
17862 1 17.8917 31.1879 -12.3585 0.000304519 1 
17864 1 20.4302 31.0429 -11.0414 0.000567439 1 
17865 1 18.0298 30.4802 -9.59914 0.00160611 1 
14938 1 26.3051 29.6369 -13.1577 0.000171625 1 
16430 1 22.8319 31.6094 -12.4866 0.000232618 1 
16432 1 25.3703 31.4711 -11.168 0.000496393 1 
16501 1 23.9035 29.0649 -11.7136 0.00037879 1 
16503 1 22.9697 30.8994 -9.72583 0.00111479 1 
14939 1 27.7721 32.0418 -12.6116 0.000227552 1 
14940 1 28.8432 29.5029 -11.8359 0.000320788 1 
14941 1 30.309 31.9112 -11.2866 0.000588346 1 
14942 1 27.9083 31.3406 -9.84842 0.00144664 1 
21151 1 0.928624 35.0076 -13.5219 0.000109795 1 
21153 1 3.46579 34.8747 -12.1975 0.000182193 1 
21155 1 2.53005 36.7084 -10.1978 0.00068532 1 
21172 1 1.06266 34.3105 -10.7466 0.00041173 1 
20699 1 5.86905 35.4357 -13.6482 0.000119883 1 
20701 1 8.40413 35.2976 -12.3234 0.000270961 1 
20702 1 6.00026 34.7422 -10.87 0.000481405 1 
20703 1 7.46574 37.1347 -10.3198 0.000923329 1 
21154 1 4.93333 37.2713 -11.6494 0.000358003 1 
19954 1 10.8092 35.8538 -13.7769 0.000117044 1 
19997 1 11.879 33.3165 -13.0016 0.000180422 1 
19999 1 10.9391 35.1547 -10.9998 0.000686422 1 
18994 1 16.8205 33.7299 -13.1306 0.000114806 1 
18996 1 15.8828 35.5629 -11.1305 0.000329797 1 
19956 1 13.346 35.7092 -12.4546 0.00019097 1 
20001 1 13.4749 35.0079 -9.67703 0.00110385 1 
17800 1 21.7612 34.1492 -13.2584 9.84658e-05 1 
17801 1 19.358 33.5853 -11.8091 0.000214283 1 
17802 1 20.8247 35.9774 -11.2577 0.000275778 1 
17803 1 21.8955 33.4413 -10.4876 0.000407594 1 
18995 1 18.2882 36.123 -12.5825 0.000141311 1 
18998 1 18.4192 35.4154 -9.80442 0.00059184 1 
16355 1 25.7656 36.4044 -11.3864 0.000312791 1 
16431 1 24.2984 34.0088 -11.9364 0.000202819 1 
17734 1 23.229 36.544 -12.711 0.000150704 1 
17804 1 23.3612 35.8332 -9.93218 0.000549557 1 
14854 1 29.2384 34.4432 -12.0598 0.000212665 1 
14855 1 30.7056 36.8416 -11.5129 0.000312168 1 
16353 1 26.7017 34.5774 -13.3856 0.000101787 1 
16354 1 28.1695 36.9752 -12.8392 0.000161892 1 
16357 1 28.3016 36.2706 -10.0591 0.000704802 1 
16433 1 26.8357 33.8735 -10.6129 0.000451278 1 
21385 1 1.32929 39.9384 -13.7619 8.05249e-05 1 
21129 1 3.86704 39.8032 -12.4371 0.00020793 1 
21152 1 2.39733 37.4053 -12.9772 0.000150671 1 
21156 1 4.00059 39.1064 -9.65488 0.00151624 1 
21403 1 1.46286 39.2373 -10.9865 0.00038008 1 
20667 1 7.337 37.831 -13.1036 0.000200732 1 
21131 1 6.40257 39.6662 -11.1096 0.000598273 1 
20668 1 8.80647 40.2259 -12.5671 0.000236899 1 
19955 1 12.2788 38.2464 -13.2362 0.00016936 1 
19958 1 12.4087 37.5407 -10.4579 0.00107594 1 
20669 1 9.8721 37.6889 -11.7795 0.000456443 1 
20670 1 11.3447 40.0805 -11.2497 0.000690832 1 
20671 1 8.9363 39.5238 -9.78619 0.00149267 1 
18937 1 17.2213 38.6611 -13.3641 0.000121586 1 
18997 1 17.3525 37.9502 -10.584 0.000581474 1 
19908 1 13.7507 40.6405 -12.7004 0.000192559 1 
19910 1 16.2894 40.4911 -11.3752 0.000433876 1 
19957 1 14.8164 38.0994 -11.912 0.000335736 1 
19959 1 13.885 39.9296 -9.92682 0.00137919 1 
18938 1 18.6922 41.0547 -12.8259 0.000139597 1 
18939 1 19.7579 38.5139 -12.0385 0.000244923 1 
18940 1 21.2295 40.9063 -11.502 0.000250896 1 
18941 1 18.8265 40.3385 -10.0482 0.000820494 1 
17661 1 23.6319 41.4764 -12.9558 0.000103883 1 
17663 1 26.1687 41.3355 -11.6336 0.0002619 1 
17733 1 22.1617 39.0807 -13.4926 0.000115688 1 
17735 1 24.6983 38.938 -12.1689 0.000232413 1 
17736 1 22.2942 38.3668 -10.7126 0.000496391 1 
17737 1 23.7671 40.7591 -10.179 0.000498248 1 
16270 1 27.1018 39.5096 -13.6232 0.000105222 1 
16272 1 29.6383 39.3741 -12.3006 0.000150554 1 
16274 1 28.7046 41.2025 -10.3145 0.000460069 1 
16356 1 27.2343 38.8001 -10.8445 0.000488673 1 
21367 1 4.26711 44.7406 -12.6926 8.77002e-05 1 
21386 1 2.79877 42.3385 -13.2262 6.0425e-05 1 
21387 1 0.394747 41.77 -11.7744 0.000155946 1 
21388 1 1.86322 44.1744 -11.2404 0.00019107 1 
21389 1 2.9331 41.6401 -10.4527 0.000396473 1 
21390 1 4.39931 44.0458 -9.92322 0.000671708 1 
21100 1 7.73939 42.765 -13.356 9.19276e-05 1 
21102 1 6.80363 44.6065 -11.3738 0.000471093 1 
21130 1 5.33612 42.2029 -11.9035 0.000189779 1 
21132 1 7.87221 42.064 -10.5821 0.00107747 1 
20628 1 12.682 43.1841 -13.4866 0.000140892 1 
20629 1 10.2767 42.6249 -12.0389 0.00045747 1 
20630 1 11.7456 45.0263 -11.5009 0.00064681 1 
20631 1 12.8181 42.4789 -10.7215 0.000828425 1 
21101 1 9.20798 45.1668 -12.8212 0.000236917 1 
21104 1 9.34046 44.4718 -10.0579 0.00185142 1 
19854 1 16.6884 45.4356 -11.6242 0.000411789 1 
19909 1 15.2213 43.0376 -12.1649 0.000277886 1 
20584 1 14.1501 45.5824 -12.9458 0.000209657 1 
20632 1 14.2855 44.8807 -10.1816 0.00138958 1 
19852 1 17.6238 43.5987 -13.6122 8.60525e-05 1 
18875 1 20.162 43.4509 -12.2904 0.00014225 1 
19856 1 19.2281 45.2849 -10.3043 0.000672161 1 
19911 1 17.7608 42.8874 -10.8425 0.000487415 1 
18874 1 22.5639 44.0178 -13.7413 4.88633e-05 1 
17662 1 25.1017 43.8754 -12.4208 0.000125586 1 
17665 1 25.24 43.1587 -9.64907 0.000665889 1 
18877 1 22.7008 43.3031 -10.9699 0.00024176 1 
17581 1 27.5035 44.448 -13.8719 6.22098e-05 1 
16184 1 30.04 44.3142 -12.5504 0.000135021 1 
16271 1 28.5711 41.9101 -13.0876 8.95727e-05 1 
16275 1 30.1748 43.6124 -9.78101 0.000664833 1 
17664 1 27.6388 43.7391 -11.1008 0.000294022 1 
21366 1 3.19947 47.2773 -13.4778 7.84538e-05 1 
21369 1 3.33075 46.5795 -10.7072 0.000379938 1 
21491 1 0.795234 46.7083 -12.0254 0.000150887 1 
21492 1 2.2651 49.1125 -11.4937 0.000359776 1 
21064 1 8.14046 47.7051 -13.602 0.000101703 1 
21103 1 8.27039 47.0104 -10.8307 0.000604203 1 
21341 1 4.67039 49.6797 -12.9404 0.000176214 1 
21343 1 7.20543 49.544 -11.6108 0.000344632 1 
21368 1 5.7358 47.1438 -12.1559 0.000204489 1 
21370 1 4.80059 48.984 -10.1687 0.000820138 1 
20583 1 13.0805 48.1227 -13.7241 9.52077e-05 1 
21066 1 10.6756 47.5657 -12.2763 0.000252472 1 
21068 1 9.73668 49.4046 -10.2769 0.000937509 1 
20586 1 13.2106 47.4231 -10.951 0.000585308 1 
20585 1 15.6163 47.9775 -12.4 0.000207221 1 
20587 1 14.6748 49.812 -10.399 0.000831379 1 
20588 1 15.7468 47.2762 -9.62769 0.00114097 1 
19792 1 18.0211 48.5367 -13.8517 6.8826e-05 1 
18876 1 21.6302 45.8478 -11.7526 0.000154162 1 
19794 1 20.5586 48.3899 -12.5314 0.000101889 1 
19853 1 19.0914 45.9953 -13.0725 0.000106732 1 
19855 1 18.1532 47.829 -11.0784 0.000343679 1 
19857 1 20.6928 47.6772 -9.75964 0.00044134 1 
18804 1 24.0326 46.4161 -13.2034 6.17276e-05 1 
18805 1 25.5015 48.8146 -12.664 0.000106096 1 
18806 1 23.0979 48.243 -11.2123 0.000155976 1 
18808 1 25.6382 48.0998 -9.89102 0.00038377 1 
18878 1 24.1701 45.7018 -10.4331 0.000315527 1 
17498 1 30.4402 49.2532 -12.7887 0.000136186 1 
17582 1 28.9721 46.8504 -13.3319 8.70021e-05 1 
17583 1 26.5706 46.2768 -11.8826 0.000157655 1 
17584 1 28.0391 48.6785 -11.3402 0.000260088 1 
17585 1 29.1073 46.1453 -10.5597 0.000375801 1 
17586 1 30.5733 48.5513 -10.0116 0.000552287 1 
21475 1 3.60474 52.2178 -13.7264 0.000140847 1 
21476 1 1.19959 51.6495 -12.282 0.000292956 1 
21478 1 3.7384 51.5177 -10.9589 0.000657563 1 
21523 1 0.267624 53.4857 -10.308 0.000907853 1 
21317 1 8.54554 52.6404 -13.8434 0.000125799 1 
21342 1 6.14257 52.0801 -12.3987 0.000251179 1 
21344 1 8.67656 51.9379 -11.0651 0.000668115 1 
21345 1 6.27209 51.3828 -9.62058 0.00149537 1 
21479 1 5.21303 53.9199 -10.4172 0.00102254 1 
21029 1 11.0803 52.4956 -12.5143 0.000321952 1 
21065 1 9.60983 50.1021 -13.057 0.000150042 1 
21067 1 12.1429 49.9587 -11.7274 0.000373033 1 
21069 1 11.2058 51.7909 -9.7283 0.00185628 1 
20533 1 14.5484 50.5159 -13.1799 0.000163652 1 
20534 1 16.0181 52.9077 -12.6417 0.00028243 1 
20535 1 17.083 50.3681 -11.856 0.000310936 1 
20537 1 16.1434 52.1956 -9.85856 0.00137464 1 
21031 1 13.6124 52.3475 -11.1847 0.000755691 1 
19734 1 20.9603 53.3249 -12.7792 0.000171549 1 
19793 1 19.4895 50.9302 -13.3124 0.000118441 1 
19796 1 19.6196 50.2175 -10.5361 0.000493758 1 
19797 1 21.0917 52.606 -10.0063 0.000763555 1 
20536 1 18.5532 52.7577 -11.3213 0.00049263 1 
19795 1 22.0276 50.7831 -11.9938 0.000191063 1 
18732 1 24.4331 51.3535 -13.4474 0.000105999 1 
18733 1 25.9044 53.7537 -12.9124 0.000176414 1 
18736 1 26.0415 53.0362 -10.1424 0.000807448 1 
18807 1 24.5679 50.6374 -10.6748 0.000406035 1 
19736 1 23.5001 53.1789 -11.4626 0.000331466 1 
17497 1 29.3739 51.7884 -13.5737 0.000119682 1 
17500 1 29.5076 51.0815 -10.7974 0.000509173 1 
18734 1 26.9717 51.2141 -12.1252 0.00024732 1 
18735 1 28.4426 53.6175 -11.5885 0.000348758 1 
21467 1 4.14442 56.4637 -11.2053 0.000469116 1 
21477 1 2.67311 54.0571 -11.747 0.000421201 1 
21521 1 1.60322 56.5979 -12.5261 0.000272478 1 
21522 1 0.131995 54.1898 -13.0661 0.000231201 1 
21524 1 1.74183 55.9019 -9.76985 0.00124649 1 
21319 1 7.61477 54.4787 -11.8592 0.000405902 1 
21465 1 5.07656 54.6203 -13.1862 0.000154977 1 
21466 1 6.54568 57.0233 -12.6461 0.000254281 1 
21468 1 6.6854 56.324 -9.88376 0.00128674 1 
21030 1 12.5522 54.8896 -11.9791 0.000550665 1 
21296 1 11.4852 57.4376 -12.7697 0.00032619 1 
21318 1 10.0163 55.0377 -13.3049 0.000207962 1 
21320 1 9.0852 56.8799 -11.3255 0.000737664 1 
21321 1 10.151 54.33 -10.5295 0.00138248 1 
21322 1 11.6248 56.7295 -10.005 0.00178218 1 
20488 1 17.4899 55.3027 -12.1121 0.000299042 1 
20995 1 14.9539 55.4514 -13.4313 0.000175219 1 
20996 1 16.4237 57.8512 -12.8988 0.000240361 1 
20997 1 14.0229 57.2895 -11.4512 0.000652591 1 
20998 1 16.5604 57.1385 -10.1356 0.00116303 1 
21032 1 15.0861 54.7378 -10.6556 0.00116703 1 
20487 1 19.8938 55.8696 -13.5652 0.000114215 1 
20489 1 18.9617 57.7041 -11.5831 0.000461934 1 
20490 1 20.0276 55.153 -10.7977 0.000517433 1 
20491 1 21.5018 57.557 -10.2702 0.000869903 1 
19677 1 24.8361 56.2965 -13.6971 0.000121643 1 
19735 1 22.4328 55.7245 -12.2492 0.000235366 1 
19737 1 24.974 55.5816 -10.9328 0.000533183 1 
18663 1 29.7762 56.7308 -13.8206 0.000100424 1 
19678 1 26.4437 57.9916 -10.3963 0.00073789 1 
18664 1 27.3752 56.1586 -12.3766 0.000229771 1 
18665 1 29.9123 56.0263 -11.0515 0.000395998 1 
18737 1 27.5149 55.4449 -9.61095 0.00114191 1 
18117 1 3.20887 0.185358 -9.22072 0.00162435 1 
18119 1 2.27867 2.03917 -7.21809 0.00512545 1 
16784 1 8.15172 0.60428 -9.34793 0.00361853 1 
16785 1 5.75284 0.0544739 -7.91074 0.00831964 1 
16786 1 7.21215 2.46249 -7.34341 0.00526921 1 
18118 1 4.67393 2.59298 -8.65649 0.00145986 1 
18121 1 4.82675 1.91321 -5.8864 0.0267697 1 
15277 1 13.0921 1.00891 -9.47339 0.00300222 1 
15279 1 12.1528 2.86417 -7.47491 0.00348249 1 
15289 1 10.6979 0.45696 -8.04182 0.00945618 1 
16772 1 9.61076 3.00921 -8.78784 0.00230719 1 
16787 1 9.76091 2.32005 -6.04239 0.00679623 1 
15290 1 13.2449 0.304816 -6.73683 0.021231 1 
13677 1 15.6338 0.857243 -8.16215 0.00551892 1 
13678 1 17.0925 3.26012 -7.59813 0.00282586 1 
13688 1 15.7956 0.141151 -5.43366 0.0368304 1 
15278 1 14.5526 3.40838 -8.91596 0.00146352 1 
15281 1 14.6981 2.71131 -6.16099 0.00662487 1 
12030 1 20.5704 1.26757 -8.28765 0.00260161 1 
12032 1 20.7204 0.548809 -5.55473 0.0101289 1 
13663 1 19.4931 3.81504 -9.04081 0.00100592 1 
13679 1 18.1761 0.703163 -6.85557 0.00824705 1 
13680 1 19.6339 3.10989 -6.28104 0.00456999 1 
12019 1 22.0326 3.66805 -7.72055 0.00174572 1 
10365 1 25.5098 1.69781 -8.41147 0.00292709 1 
10377 1 25.6591 0.975385 -5.67499 0.0190945 1 
12021 1 24.574 3.5248 -6.39917 0.00397451 1 
12031 1 23.1141 1.11925 -6.97965 0.00498934 1 
8714 1 30.4451 2.15761 -8.52389 0.00598643 1 
8716 1 30.5802 1.49259 -5.78958 0.0683557 1 
10366 1 26.971 4.10686 -7.84118 0.00267796 1 
10367 1 28.0472 1.57871 -7.09965 0.0130631 1 
10368 1 29.5035 3.99842 -6.49537 0.0107467 1 
18101 1 3.59863 5.11964 -9.41909 0.00056408 1 
18120 1 3.73142 4.43894 -6.63655 0.00247865 1 
19233 1 2.66003 6.95503 -7.41255 0.00556758 1 
19243 1 1.19656 4.55679 -7.96652 0.00199306 1 
19244 1 0.250562 6.38461 -5.94842 0.0125625 1 
19231 1 0.124482 7.07423 -8.7417 0.00159783 1 
16771 1 8.53225 5.54172 -9.54409 0.00112401 1 
16774 1 8.65837 4.86192 -6.764 0.00550409 1 
18102 1 5.0622 7.5164 -8.8612 0.00162985 1 