ITEM: TIMESTEP
0
ITEM: NUMBER OF ATOMS
16650
ITEM: BOX BOUNDS xy xz yz pp pp ss
0.0000000000000000e+00 1.7326870029000000e+02 1.1211504136400001e+02
0.0000000000000000e+00 1.5195148074299999e+02 0.0000000000000000e+00
-1.0628271236563366e+02 1.1432321615541251e+02 0.0000000000000000e+00
ITEM: ATOMS id type x y z c_csym c_cna 
59116 1 7.20008 1.27455 -0.614008 0.376695 1 
59737 2 19.5789 17.383 3.94579 0.121957 1 
64828 2 103.644 70.1404 4.01353 0.016524 1 
60288 2 30.2826 3.85318 3.99935 0.0152986 1 
68957 2 54.3196 69.59 3.94843 0.0811284 1 
59601 2 66.3898 66.4924 3.89141 5.09601 5 
64200 2 50.1557 17.3826 3.94544 0.121992 1 
66069 2 60.8596 3.85334 3.99892 0.015335 1 
11233 1 8.9021 0.5794 -14.921 0.000372956 1 
11257 1 5.16083 0.651165 -13.4396 0.00167716 1 
11264 1 61.4626 3.46191 -14.723 0.00123958 1 
11265 1 2.73815 2.05566 -14.0932 0.00170788 1 
11266 1 61.4613 0.598235 -14.5904 0.000988735 1 
11267 1 1.38893 0.726662 -11.9735 0.00367586 1 
59766 2 20.8931 27.5156 3.86849 6.35592 5 
12818 1 22.2795 0.62289 -14.1715 0.000278867 1 
12890 1 19.8704 2.02683 -14.7957 9.96669e-05 1 
12892 1 18.5255 0.698773 -12.649 0.000285894 1 
12949 1 13.7069 3.50252 -13.8931 0.000507169 1 
12950 1 16.113 2.10189 -13.2699 0.000388801 1 
12951 1 13.708 0.639857 -13.7727 0.000359641 1 
12952 1 14.7649 0.772988 -11.1231 0.00144673 1 
12992 1 11.3068 4.90314 -14.528 0.000523666 1 
12994 1 11.3055 2.04126 -14.4047 0.000372697 1 
12995 1 9.96922 3.57336 -12.3758 0.00138454 1 
12996 1 12.3611 2.17333 -11.7385 0.00138045 1 
12997 1 9.96665 0.71032 -12.2546 0.00136483 1 
12998 1 11.0158 0.842291 -9.57956 0.00837295 1 
13023 1 5.16333 6.37699 -13.6932 0.00169889 1 
13024 1 7.57392 4.97479 -13.0342 0.00142184 1 
13025 1 5.16354 3.5148 -13.5722 0.00186653 1 
13026 1 7.57259 2.11217 -12.9085 0.00160697 1 
13027 1 6.24814 3.64321 -10.9084 0.00438386 1 
13028 1 8.64141 2.24406 -10.2213 0.00590504 1 
13029 1 6.24714 0.781768 -10.7771 0.00438021 1 
13030 1 7.32876 0.917362 -8.0788 0.0115377 1 
13037 1 61.4676 9.18022 -14.9522 0.00045733 1 
13038 1 63.8932 7.77939 -14.3332 0.00120494 1 
13039 1 61.4648 6.32349 -14.8409 0.00100243 1 
13040 1 63.8931 4.91918 -14.2191 0.00167393 1 
13041 1 62.546 6.44882 -12.2183 0.00417554 1 
13042 1 3.82918 5.04458 -11.5846 0.00560191 1 
13043 1 62.5445 3.58789 -12.1085 0.00479839 1 
13044 1 3.82914 2.18255 -11.4608 0.00559966 1 
13045 1 63.6435 3.70815 -9.50337 0.0184381 1 
13046 1 4.92584 2.31258 -8.80668 0.0127073 1 
13047 1 2.48611 0.856065 -9.36336 0.0135537 1 
13048 1 3.59369 0.996752 -6.73232 0.0410867 1 
13049 1 61.1857 5.11866 -10.1188 0.0175509 1 
13050 1 61.1803 2.26126 -10.0017 0.010896 1 
13051 1 62.2889 2.37729 -7.43694 0.058702 1 
13052 1 60.8622 1.075 -5.34448 0.42616 1 
14219 1 39.4789 0.579411 -14.9208 0.000372969 1 
14351 1 35.7375 0.651178 -13.4393 0.00167532 1 
14472 1 30.8854 3.46191 -14.7225 0.00123792 1 
14473 1 33.3147 2.05566 -14.0928 0.00170681 1 
14474 1 30.8842 0.598311 -14.59 0.00098767 1 
14475 1 31.9654 0.726676 -11.9731 0.00367023 1 
14582 1 27.1027 3.54011 -13.195 0.00223681 1 
14583 1 29.5272 2.13368 -12.5936 0.00266967 1 
14584 1 27.1022 0.677036 -13.0671 0.0012618 1 
14585 1 28.1605 0.809439 -10.454 0.00436098 1 
14674 1 22.2875 6.34466 -14.417 0.000133104 1 
14675 1 24.6936 4.94352 -13.7988 0.000475428 1 
14676 1 22.2805 3.48577 -14.2975 0.000226307 1 
14677 1 24.6879 2.08214 -13.6803 0.000814471 1 
14678 1 23.338 3.61838 -11.6501 0.00128205 1 
14679 1 25.7386 2.21459 -11.0489 0.00520673 1 
14680 1 23.3353 0.755746 -11.5265 0.00146117 1 
14681 1 24.3779 0.892933 -8.87902 0.00944277 1 
14755 1 19.8729 4.88771 -14.9193 7.3679e-05 1 
14756 1 18.5274 6.41822 -12.8915 0.000255458 1 
14757 1 20.9368 5.01884 -12.2679 0.000342416 1 
14758 1 18.5233 3.56094 -12.7707 0.000174119 1 
14759 1 20.9324 2.15874 -12.1478 0.000389605 1 
14760 1 19.5887 3.69212 -10.1233 0.00121908 1 
14761 1 21.9912 2.29327 -9.4914 0.00294537 1 
14762 1 19.5926 0.830499 -10.0025 0.00150113 1 
14763 1 20.664 0.964061 -7.34014 0.00643879 1 
14820 1 13.7127 9.21624 -14.1433 0.000511913 1 
14821 1 16.1169 7.81664 -13.5138 0.00051086 1 
14822 1 13.7084 6.36092 -14.0161 0.000544728 1 
14823 1 16.1128 4.96133 -13.3905 0.000438209 1 
14824 1 14.7579 6.48956 -11.3525 0.00219029 1 
14825 1 17.1709 5.09222 -10.7426 0.00117295 1 
14826 1 14.7586 3.63562 -11.2335 0.0020364 1 
14827 1 17.174 2.23538 -10.6256 0.00135779 1 
14828 1 15.8062 3.77088 -8.59089 0.00750058 1 
14829 1 18.2437 2.36296 -7.99039 0.00529387 1 
14830 1 15.8276 0.907367 -8.49564 0.00610693 1 
14831 1 16.9031 1.02473 -5.88322 0.0239542 1 
14871 1 11.3113 10.6177 -14.7839 0.000378619 1 
14873 1 11.3086 7.7616 -14.6536 0.00049382 1 
14874 1 9.97011 9.28939 -12.6234 0.00125787 1 
14875 1 12.3612 7.8885 -11.9774 0.00204585 1 
14876 1 9.97095 6.43335 -12.4947 0.00220505 1 
14877 1 12.3596 5.03356 -11.8536 0.00230682 1 
14878 1 11.019 6.56245 -9.79052 0.0112762 1 
14879 1 13.392 5.16371 -9.17521 0.0136468 1 
14880 1 11.0168 3.70445 -9.68483 0.00581807 1 
14881 1 13.4035 2.30661 -9.07668 0.00747051 1 
14882 1 12.0339 3.83296 -6.97438 0.0331476 1 
14883 1 14.4425 2.43859 -6.45138 0.0273994 1 
14884 1 12.0447 0.967905 -6.92091 0.0850851 1 
14885 1 13.0693 1.09631 -4.341 1.68073 5 
14910 1 66.3124 12.0899 -13.9285 0.00081242 1 
14911 1 68.7243 10.6902 -13.2785 0.00114565 1 
14912 1 66.3149 9.23507 -13.8092 0.00128574 1 
14913 1 7.57319 7.83401 -13.1547 0.00149784 1 
14914 1 67.3945 9.35864 -11.1406 0.00334783 1 
14915 1 8.6388 7.95996 -10.4634 0.00389926 1 
14916 1 6.24521 6.50298 -11.0264 0.00409752 1 
14917 1 8.64046 5.10431 -10.3455 0.00322155 1 
14918 1 7.31072 6.62687 -8.32322 0.00813647 1 
14919 1 9.68202 5.23493 -7.62297 0.00748546 1 
14920 1 7.32039 3.77513 -8.2068 0.0111716 1 
14921 1 9.6904 2.37846 -7.49469 0.0335772 1 
14922 1 8.34403 3.90664 -5.45109 0.0321524 1 
14923 1 10.6969 2.49996 -4.70254 0.278131 1 
14924 1 8.36975 1.05751 -5.33468 0.0617347 1 
14925 1 9.48661 1.24166 -2.39299 6.3127 5 
14933 1 63.8926 13.4889 -14.5643 0.000348184 1 
14935 1 63.8928 10.635 -14.4456 0.000633989 1 
14936 1 62.5484 12.1538 -12.4236 0.000998361 1 
14937 1 64.9763 10.7564 -11.7969 0.00254284 1 
14938 1 62.5466 9.30221 -12.3166 0.00180034 1 
14939 1 64.9798 7.90321 -11.6914 0.00432223 1 
14940 1 63.637 9.41589 -9.68639 0.00895902 1 
14941 1 66.0654 8.02002 -9.02951 0.0103262 1 
14942 1 63.6418 6.56689 -9.60313 0.0180447 1 
14943 1 4.91989 5.16755 -8.92668 0.0142894 1 
14944 1 64.7259 6.65832 -6.95437 0.0569198 1 
14945 1 5.96832 5.2863 -6.20799 0.0394922 1 
14946 1 3.58218 3.83577 -6.86642 0.0685707 1 
14947 1 5.98963 2.45528 -6.10748 0.0436558 1 
14948 1 4.58628 3.90919 -4.104 7.07201 2 
14949 1 7.03328 2.57364 -3.26465 6.85156 2 
14950 1 4.7124 1.11539 -3.99967 5.8203 5 
14951 1 4.75429 2.48862 -1.52624 0.604952 1 
14952 1 61.198 10.8135 -10.2869 0.00354133 1 
14953 1 61.1892 7.96587 -10.1947 0.00666289 1 
14954 1 62.2907 8.05688 -7.60483 0.0440947 1 
14955 1 62.2959 5.21904 -7.55929 0.108367 1 
14956 1 60.9365 6.65403 -5.56991 3.58706 5 
14957 1 63.3003 5.24826 -4.90072 7.26435 2 
14958 1 60.9149 3.81654 -5.54431 5.7163 5 
14959 1 2.24597 2.47255 -4.82705 5.42228 5 
14960 1 60.9119 5.16034 -3.24517 6.60271 5 
14961 1 63.4428 3.78933 -2.40817 1.10592 5 
14962 1 61.724 1.65034 -2.85549 6.57122 5 
14963 1 61.1356 0.416752 -0.577353 6.23047 5 
15765 1 52.8568 0.622839 -14.1717 0.000278757 1 
15895 1 50.4475 2.02673 -14.7959 9.93286e-05 1 
15897 1 49.1027 0.698687 -12.6491 0.000286011 1 
16030 1 44.2838 3.50232 -13.8931 0.000506339 1 
16031 1 46.6901 2.10175 -13.2699 0.000388293 1 
16032 1 44.285 0.639781 -13.7726 0.000359056 1 
16033 1 45.342 0.772881 -11.123 0.00144679 1 
16163 1 41.8836 4.90293 -14.5279 0.000524231 1 
16165 1 41.8824 2.04116 -14.4046 0.000372542 1 
16166 1 40.546 3.57318 -12.3757 0.00138592 1 
16167 1 42.9381 2.17318 -11.7384 0.00137922 1 
16168 1 40.5436 0.710251 -12.2544 0.00136426 1 
16169 1 41.5928 0.84217 -9.57938 0.008373 1 
16302 1 35.7398 6.37681 -13.6929 0.00169735 1 
16303 1 38.1506 4.9746 -13.0339 0.00142213 1 
16304 1 35.7401 3.51471 -13.5719 0.00186376 1 
16305 1 38.1493 2.11209 -12.9082 0.00160688 1 
16306 1 36.8248 3.64304 -10.9082 0.00438679 1 
16307 1 39.2182 2.2439 -10.2211 0.00590473 1 
16308 1 36.8239 0.781703 -10.7768 0.00438204 1 
16309 1 37.9056 0.917224 -8.07853 0.0115421 1 
16430 1 30.8902 9.18016 -14.9517 0.000456637 1 
16431 1 33.3159 7.77926 -14.3328 0.00120179 1 
16432 1 30.8875 6.32344 -14.8404 0.000999105 1 
16433 1 33.3159 4.91911 -14.2187 0.00166971 1 
16434 1 31.9687 6.4487 -12.2178 0.00416816 1 
16435 1 34.4057 5.04442 -11.5842 0.00559833 1 
16436 1 31.9673 3.58782 -12.1081 0.00479404 1 
16437 1 34.4057 2.18248 -11.4605 0.00559852 1 
16438 1 33.0663 3.70798 -9.50299 0.0184363 1 
16439 1 35.5025 2.31241 -8.80639 0.0127155 1 
16440 1 33.0627 0.855978 -9.36299 0.0135557 1 
16441 1 34.1704 0.996547 -6.73204 0.0411506 1 
16548 1 27.1201 9.25207 -13.4142 0.00079443 1 
16549 1 29.5356 7.85013 -12.8136 0.00152042 1 
16550 1 27.1102 6.39838 -13.3041 0.0011707 1 
16551 1 29.5301 4.99525 -12.7129 0.00354451 1 
16552 1 28.1703 6.52128 -10.6692 0.00719024 1 
16553 1 30.6084 5.11854 -10.1183 0.0175452 1 
16554 1 28.1588 3.67043 -10.5836 0.015247 1 
16555 1 30.6031 2.26119 -10.0012 0.0108983 1 
16556 1 29.2181 3.80192 -8.02103 0.132788 1 
16557 1 31.7117 2.37709 -7.43655 0.0587396 1 
16558 1 29.2198 0.953114 -7.87329 0.0173132 1 
16559 1 30.285 1.0746 -5.344 0.427621 1 
16648 1 22.3078 12.0525 -14.6602 0.000313502 1 
16649 1 24.7134 10.6527 -14.0302 0.000469879 1 
16650 1 22.2976 9.19966 -14.5359 0.000261103 1 
16651 1 24.7029 7.7999 -13.9134 0.000438345 1 
16652 1 23.368 9.32634 -11.8702 0.0016747 1 
16653 1 25.7659 7.92653 -11.2558 0.0022248 1 
16654 1 23.3513 6.47475 -11.7611 0.000463791 1 
16655 1 25.7516 5.0745 -11.1496 0.00325576 1 
16656 1 24.4119 6.60417 -9.09691 0.00143243 1 
16657 1 26.8082 5.20241 -8.48745 0.0435056 1 
16658 1 24.3843 3.7549 -9.00099 0.0104879 1 
16659 1 26.7737 2.35073 -8.44474 0.0383026 1 
16660 1 25.4101 3.89949 -6.35612 0.0879295 1 
16661 1 27.7825 2.48396 -5.89875 0.361042 1 
16662 1 25.4068 1.03801 -6.23224 0.0444488 1 
16663 1 26.434 1.21917 -3.59708 0.788126 1 
16738 1 18.5477 12.1211 -13.1445 0.000441321 1 
16739 1 20.9615 10.7241 -12.5077 0.000659312 1 
16740 1 18.5363 9.27087 -13.0149 0.000371013 1 
16741 1 20.9482 7.8735 -12.3858 0.000506155 1 
16742 1 19.6071 9.3977 -10.3637 0.00182788 1 
16743 1 22.0201 8.00313 -9.72088 0.00290496 1 
16744 1 19.5944 6.54794 -10.2425 0.00151435 1 
16745 1 21.9999 5.1521 -9.60822 0.00294763 1 
16746 1 20.6655 6.67788 -7.58688 0.00647295 1 
16747 1 23.0574 5.29191 -6.92209 0.02335 1 
16748 1 20.6576 3.82444 -7.46514 0.00609769 1 
16749 1 23.0432 2.43546 -6.80844 0.0199962 1 
16750 1 21.7163 3.96551 -4.77529 0.0227898 1 
16751 1 24.0807 2.6012 -4.08257 0.2617 1 
16752 1 21.7298 1.11279 -4.63924 0.0252973 1 
16753 1 22.8726 1.33532 -1.85563 0.419729 1 
16810 1 13.7262 14.9241 -14.4203 0.000294965 1 
16811 1 16.1355 13.5208 -13.7807 0.0004287 1 
16812 1 13.719 12.0699 -14.278 0.000400162 1 
16813 1 16.1249 10.6688 -13.6427 0.000499247 1 
16814 1 14.7747 12.1907 -11.6147 0.00152513 1 
16815 1 17.1852 10.7916 -10.9891 0.00162735 1 
16816 1 14.7635 9.34085 -11.477 0.00193926 1 
16817 1 17.1747 7.94458 -10.8629 0.0015728 1 
16818 1 15.8046 9.46297 -8.82448 0.00669283 1 
16819 1 18.2395 8.07172 -8.23061 0.0066355 1 
16820 1 15.8007 6.61783 -8.70949 0.00783213 1 
16821 1 18.2365 5.21878 -8.10946 0.00554064 1 
16822 1 16.8576 6.74286 -6.1165 0.0326715 1 
16823 1 19.3071 5.34036 -5.4731 0.0209592 1 
16824 1 16.8705 3.88983 -5.98727 0.0195324 1 
16825 1 19.3237 2.48054 -5.34683 0.0218823 1 
16826 1 17.9654 3.95424 -3.39576 0.151615 1 
16827 1 20.4126 2.6265 -2.63801 0.166605 1 
16828 1 17.9922 1.11314 -3.25874 0.0991665 1 
123042 3 108.034 75.9138 0.283697 7.04399 2 
16871 1 11.3144 13.4727 -14.9202 0.000270884 1 
16872 1 71.1257 14.9975 -12.899 0.000660067 1 
16873 1 12.3732 13.5941 -12.2528 0.0010194 1 
16874 1 9.97085 12.1435 -12.7572 0.000896233 1 
16875 1 12.3665 10.7417 -12.1099 0.00129533 1 
16876 1 11.0203 12.2671 -10.0722 0.0030068 1 
16877 1 13.4045 10.8642 -9.43276 0.00526949 1 
16878 1 11.0163 9.4149 -9.92925 0.00412694 1 
16879 1 13.3938 8.01364 -9.29839 0.0118957 1 
16880 1 12.0351 9.54109 -7.21837 0.0175348 1 
16881 1 14.4042 8.13726 -6.64432 0.0912146 1 
16882 1 12.0405 6.69301 -7.04729 0.0822967 1 
16883 1 14.406 5.29311 -6.52813 0.0981158 1 
16884 1 13.0463 6.8223 -4.22928 1.07672 5 
16885 1 15.4788 5.40843 -3.99414 6.30381 5 
16886 1 13.0368 3.95748 -4.29473 0.262637 1 
16887 1 15.5053 2.54497 -3.89474 0.233864 1 
16888 1 14.044 4.28753 -1.77907 8.27972 5 
16889 1 16.5062 2.53317 -1.36255 7.45094 2 
16890 1 14.187 0.987695 -1.96195 10.264 5 
16915 1 66.3085 17.7998 -14.1894 0.000217754 1 
16916 1 68.7202 16.3994 -13.5464 0.000416442 1 
16917 1 66.3101 14.9441 -14.0553 0.000459446 1 
16918 1 68.722 13.5445 -13.4088 0.000721998 1 
16919 1 67.3862 15.0653 -11.3899 0.00157511 1 
16920 1 69.787 13.6675 -10.7287 0.00221569 1 
16921 1 67.3901 12.2119 -11.2599 0.00239706 1 
16922 1 8.63538 10.8143 -10.5911 0.00327619 1 
16923 1 68.4584 12.3343 -8.56532 0.00541164 1 
16924 1 9.67988 10.9409 -7.87342 0.0110589 1 
16925 1 7.30654 9.47973 -8.44152 0.00648738 1 
16926 1 9.6809 8.08612 -7.73659 0.0108651 1 
16927 1 8.33715 9.61034 -5.70362 0.0488503 1 
16928 1 10.6847 8.2256 -4.96903 0.092272 1 
16929 1 8.32953 6.75728 -5.57328 0.0574964 1 
16930 1 10.6771 5.37319 -4.86591 0.0750877 1 
16931 1 9.21181 6.98994 -2.76117 6.5571 2 
16932 1 11.5819 5.62602 -2.10399 7.07586 5 
16933 1 9.31169 4.0971 -2.6106 6.65198 2 
16934 1 11.7845 2.67156 -1.76781 8.4823 5 
16942 1 63.893 19.1996 -14.824 9.44133e-05 1 
16944 1 63.8925 16.3432 -14.6911 0.000182788 1 
16945 1 62.5511 17.8599 -12.6701 0.000386184 1 
16946 1 64.9717 16.4622 -12.0392 0.000935815 1 
16947 1 62.5498 15.0058 -12.5419 0.000636434 1 
16948 1 64.974 13.6085 -11.9122 0.00157396 1 
16949 1 63.6366 15.1186 -9.89963 0.00346762 1 
16950 1 66.0589 13.7253 -9.24714 0.00481411 1 
16951 1 63.6372 12.2658 -9.78428 0.00505514 1 
16952 1 66.0607 10.8722 -9.1324 0.00679831 1 
16953 1 64.7324 12.3678 -7.13116 0.0142951 1 
16954 1 67.1255 10.9857 -6.4342 0.0274054 1 
16955 1 64.7255 9.50877 -7.03881 0.0310578 1 
16956 1 67.1179 8.1271 -6.32377 0.0502452 1 
16957 1 65.7104 9.61221 -4.35851 2.19476 5 
16958 1 6.86821 8.29168 -3.56951 5.99377 2 
16959 1 65.6647 6.7401 -4.23093 6.56326 2 
16960 1 6.89853 5.42735 -3.42343 6.8699 2 
16961 1 6.69737 7.0401 -1.03404 0.0849655 1 
16962 1 6.9605 4.17402 -0.827284 0.132756 1 
16963 1 61.2066 16.5156 -10.5144 0.00183018 1 
16964 1 61.2027 13.6635 -10.3943 0.00263186 1 
16965 1 62.3018 13.7605 -7.7764 0.013735 1 
16966 1 62.2995 10.9027 -7.67412 0.0189502 1 
16967 1 60.9875 12.3595 -5.6713 0.090437 1 
16968 1 63.3918 10.9755 -5.04908 0.279203 1 
16969 1 60.9793 9.49932 -5.56809 0.247376 1 
16970 1 63.3452 8.09111 -4.995 2.79699 5 
16971 1 62.3879 9.50781 -2.89762 6.88927 5 
16972 1 65.3089 8.28298 -1.93741 0.597529 5 
16973 1 63.1271 6.68904 -2.58062 0.905117 5 
16974 1 4.48174 5.40008 -1.70746 0.0776936 1 
16975 1 62.9188 8.22136 -0.326947 0.290211 1 
16976 1 63.1991 5.26762 -0.107373 0.0990472 1 
17649 1 57.68 3.5401 -13.1954 0.00223558 1 
17650 1 60.1044 2.13368 -12.5941 0.00267006 1 
17651 1 57.6795 0.676997 -13.0675 0.00126197 1 
17652 1 58.7378 0.809447 -10.4545 0.00436412 1 
17783 1 52.8646 6.3445 -14.4173 0.000133724 1 
17784 1 55.2708 4.94346 -13.7992 0.000475265 1 
17785 1 52.8577 3.48568 -14.2977 0.00022664 1 
17786 1 55.2651 2.0821 -13.6807 0.000813894 1 
17787 1 53.9153 3.61831 -11.6504 0.00128547 1 
17788 1 56.3159 2.21458 -11.0493 0.00520529 1 
17789 1 53.9125 0.755705 -11.5268 0.0014626 1 
17790 1 54.9553 0.892942 -8.87927 0.00944868 1 
17922 1 50.45 4.88754 -14.9195 7.42783e-05 1 
17923 1 49.1044 6.41794 -12.8917 0.000256399 1 
17924 1 51.5139 5.01868 -12.2682 0.000344057 1 
17925 1 49.1005 3.56078 -12.7708 0.000174513 1 
17926 1 51.5096 2.15865 -12.148 0.000390939 1 
17927 1 50.1658 3.69196 -10.1234 0.00122192 1 
17928 1 52.5684 2.29321 -9.49162 0.002953 1 
17929 1 50.1699 0.830421 -10.0026 0.00150487 1 
17930 1 51.2414 0.964018 -7.3402 0.00645181 1 
18063 1 44.2894 9.21581 -14.1435 0.000512408 1 
18064 1 46.6938 7.81628 -13.514 0.000511368 1 
18065 1 44.2852 6.36061 -14.0162 0.000544274 1 
18066 1 46.6897 4.96107 -13.3906 0.000437886 1 
18067 1 45.3347 6.48921 -11.3526 0.00218864 1 
18068 1 47.7479 5.09195 -10.7428 0.00117256 1 
18069 1 45.3356 3.63539 -11.2335 0.00203616 1 
18070 1 47.7512 2.23522 -10.6257 0.00135842 1 
18071 1 46.3833 3.77066 -8.59094 0.00750099 1 
18072 1 48.8209 2.36282 -7.99046 0.0053001 1 
18073 1 46.4048 0.907239 -8.49559 0.00610446 1 
18074 1 47.4804 1.02463 -5.88319 0.0239784 1 
18204 1 41.8878 10.6173 -14.784 0.000378326 1 
18206 1 41.8853 7.76128 -14.6536 0.000494032 1 
18207 1 40.5466 9.28897 -12.6234 0.00125644 1 
18208 1 42.9379 7.88809 -11.9774 0.00204568 1 
18209 1 40.5476 6.43305 -12.4946 0.0022091 1 
18210 1 42.9364 5.03328 -11.8536 0.00230723 1 
18211 1 41.5958 6.56209 -9.79047 0.0112898 1 
18212 1 43.9689 5.16341 -9.17521 0.0136515 1 
18213 1 41.5936 3.7042 -9.6847 0.00581757 1 
18214 1 43.9806 2.30643 -9.0766 0.00747535 1 
18215 1 42.6109 3.83269 -6.97429 0.0331645 1 
18216 1 45.0197 2.43842 -6.45136 0.0274154 1 
18217 1 42.6218 0.967754 -6.92076 0.0851276 1 
18218 1 43.6464 1.09623 -4.34104 1.68191 5 
18351 1 35.7348 12.0896 -13.9284 0.000811345 1 
18352 1 38.147 10.6898 -13.2785 0.00114594 1 
18353 1 35.7376 9.23481 -13.809 0.00128379 1 
18354 1 38.1497 7.83372 -13.1546 0.00149969 1 
18355 1 36.8172 9.35828 -11.1405 0.00334762 1 
18356 1 39.2154 7.95958 -10.4633 0.00390164 1 
18357 1 36.8217 6.50272 -11.0262 0.00409718 1 
18358 1 39.2172 5.10404 -10.3453 0.00322199 1 
18359 1 37.8873 6.62654 -8.32307 0.00813648 1 
18360 1 40.2588 5.23461 -7.62285 0.00748047 1 
18361 1 37.8971 3.77488 -8.20658 0.0111712 1 
18362 1 40.2673 2.37825 -7.49451 0.0335671 1 
18363 1 38.9209 3.90634 -5.45091 0.0321777 1 
18364 1 41.2739 2.49973 -4.70241 0.27814 1 
18365 1 38.9467 1.05729 -5.33442 0.0617122 1 
18366 1 40.0636 1.24145 -2.39278 6.31277 5 
18488 1 33.3149 13.4887 -14.5641 0.000346756 1 
18490 1 33.3153 10.6349 -14.4453 0.000631553 1 
18491 1 31.9708 12.1537 -12.4233 0.000996151 1 
18492 1 34.3988 10.7561 -11.7967 0.00253849 1 
18493 1 31.9692 9.30205 -12.3162 0.00179542 1 
18494 1 34.4025 7.90297 -11.6911 0.00431657 1 
18495 1 33.0596 9.41561 -9.68603 0.00894827 1 
18496 1 35.4881 8.01971 -9.02927 0.0103243 1 
18497 1 33.0646 6.56667 -9.60273 0.0180318 1 
18498 1 35.4965 5.1673 -8.9264 0.0142939 1 
18499 1 34.1488 6.65799 -6.95406 0.056951 1 
18500 1 36.545 5.28598 -6.20778 0.0395142 1 
18501 1 34.1588 3.83551 -6.86615 0.0686556 1 
18502 1 36.5664 2.45502 -6.10723 0.043639 1 
18503 1 35.1631 3.90885 -4.10376 7.07138 2 
18504 1 37.6102 2.57335 -3.26443 6.85135 2 
18505 1 35.2893 1.11508 -3.99934 5.82291 5 
18506 1 35.3313 2.48839 -1.52591 0.603667 1 
18613 1 27.1369 14.9555 -13.6538 0.000484582 1 
18614 1 29.5484 13.5535 -13.0357 0.000663826 1 
18615 1 27.1292 12.1034 -13.5301 0.000637291 1 
18616 1 29.5428 10.7021 -12.9205 0.000926416 1 
18617 1 28.1978 12.2175 -10.8754 0.00280756 1 
18618 1 30.6205 10.8133 -10.2865 0.00354348 1 
18619 1 28.1864 9.3707 -10.7668 0.00345207 1 
18620 1 30.6118 7.96572 -10.1941 0.00666422 1 
18621 1 29.2609 9.4694 -8.13749 0.022069 1 
18622 1 31.7134 8.05658 -7.60435 0.044058 1 
18623 1 29.2299 6.62857 -8.06637 0.0693497 1 
18624 1 31.7187 5.21876 -7.55883 0.10835 1 
18625 1 30.3594 6.65349 -5.56927 3.58459 5 
18626 1 32.7232 5.2478 -4.90038 7.26397 2 
18627 1 30.3376 3.81599 -5.54375 5.71699 5 
18628 1 32.8228 2.47224 -4.8268 5.42449 5 
18629 1 30.3348 5.15943 -3.24457 6.59431 5 
18630 1 32.8661 3.78897 -2.40781 1.10336 5 
18631 1 31.1469 1.6508 -2.85545 6.57212 5 
18720 1 22.3238 17.7613 -14.9259 0.000194385 1 
18721 1 24.7308 16.3585 -14.285 0.0002755 1 
18722 1 22.3164 14.9059 -14.7912 0.000192142 1 
18723 1 24.7229 13.5048 -14.1545 0.00036187 1 
18724 1 23.3918 15.0262 -12.1229 0.00061399 1 
18725 1 25.793 13.6225 -11.486 0.001684 1 
18726 1 23.3821 12.1755 -11.9907 0.00183767 1 
18727 1 25.7806 10.7742 -11.3642 0.0024308 1 
18728 1 24.4605 12.2942 -9.30088 0.0124867 1 
18729 1 26.8475 10.8847 -8.69323 0.0127693 1 
18730 1 24.4411 9.45026 -9.18465 0.0113505 1 
18731 1 26.8284 8.04604 -8.5949 0.0121483 1 
18732 1 25.519 9.56494 -6.46426 0.0822527 1 
18733 1 27.9066 8.14193 -5.93899 0.310034 1 
18734 1 25.4684 6.73428 -6.43155 0.0294663 1 
18735 1 27.8993 5.29137 -5.79612 6.32616 5 
18736 1 26.5613 6.79755 -3.78411 5.28589 5 
18737 1 27.9455 4.77044 -1.68164 10.4904 5 
18738 1 26.375 4.01921 -3.6901 5.72107 5 
18739 1 28.8378 2.84555 -3.45815 5.47335 5 
18740 1 27.8185 1.59875 -1.2996 8.83342 5 
18741 1 30.5589 0.417288 -0.577126 6.23222 5 
18816 1 18.5716 17.8294 -13.4225 0.000524859 1 
18817 1 20.9847 16.4275 -12.7711 0.000666641 1 
18818 1 18.5602 14.9733 -13.2814 0.000486512 1 
18819 1 20.9736 13.5743 -12.6371 0.000547101 1 
18820 1 19.6396 15.0937 -10.6257 0.00179994 1 
18821 1 22.0543 13.6957 -9.96791 0.00190575 1 
18822 1 19.6222 12.244 -10.4911 0.0017275 1 
18823 1 22.04 10.849 -9.83932 0.0027505 1 
18824 1 20.7022 12.3689 -7.8355 0.00509247 1 
18825 1 23.1216 10.9729 -7.15039 0.00897195 1 
18826 1 20.6826 9.52436 -7.70833 0.00611541 1 
18827 1 23.0916 8.13538 -7.03196 0.0159151 1 
18828 1 21.7491 9.65841 -5.03314 0.0315192 1 
18829 1 24.156 8.27235 -4.29857 0.213288 1 
18830 1 21.726 6.81594 -4.90416 0.0206633 1 
18831 1 24.0947 5.46017 -4.19564 0.241265 1 
18832 1 22.7522 6.95348 -2.16479 0.435447 1 
18833 1 25.2822 5.74064 -1.26126 5.43413 5 
18834 1 22.8457 4.14519 -2.00497 0.609407 1 
18835 1 25.3441 2.92804 -1.08943 5.83844 5 
18892 1 74.8928 20.6416 -14.7102 0.000217498 1 
18893 1 16.1554 19.2345 -14.0697 0.000354758 1 
18894 1 13.7331 17.7812 -14.566 0.00023283 1 
18895 1 16.1463 16.3757 -13.9246 0.000365923 1 
18896 1 14.8021 17.8987 -11.9209 0.00100871 1 
18897 1 17.2205 16.4927 -11.2769 0.00148823 1 
18898 1 14.789 15.0417 -11.7662 0.00134575 1 
18899 1 17.2024 13.6392 -11.129 0.00167237 1 
18900 1 15.8518 15.155 -9.12631 0.00605237 1 
18901 1 18.2762 13.7595 -8.48977 0.00519617 1 
18902 1 15.823 12.3084 -8.96395 0.00582639 1 
18903 1 18.2509 10.9143 -8.35325 0.00519962 1 
18904 1 16.8794 12.4262 -6.35265 0.0138104 1 
18905 1 19.3228 11.041 -5.72962 0.0196915 1 
18906 1 16.8506 9.58262 -6.21708 0.0162776 1 
18907 1 19.3063 8.1907 -5.60215 0.0194852 1 
18908 1 17.9234 9.68574 -3.6585 0.124696 1 
18909 1 20.334 8.30416 -2.95117 0.113115 1 
18910 1 17.914 6.81981 -3.52802 0.10778 1 
18911 1 20.3623 5.45639 -2.79488 0.144758 1 
18954 1 71.1301 20.7143 -13.1935 0.000281389 1 
18955 1 73.5408 19.3073 -12.5579 0.000637188 1 
18956 1 71.1271 17.8539 -13.0473 0.000459226 1 
18957 1 12.3802 16.4482 -12.4058 0.000860897 1 
18958 1 72.1837 17.9745 -10.3932 0.00325205 1 
18959 1 13.437 16.5647 -9.76016 0.00476469 1 
18960 1 72.1791 15.1196 -10.2266 0.00310315 1 
18961 1 13.4197 13.7143 -9.58603 0.00411554 1 
18962 1 12.0615 15.2484 -7.55324 0.0168049 1 
18963 1 14.4529 13.834 -6.93696 0.0179591 1 
18964 1 12.0468 12.3954 -7.379 0.0120967 1 
18965 1 14.4211 10.9844 -6.77199 0.0304882 1 
18966 1 13.0498 12.532 -4.69166 0.0999158 1 
18967 1 15.446 11.1086 -4.19465 0.126193 1 
18968 1 13.0218 9.67294 -4.48927 0.165424 1 
18969 1 15.4206 8.26099 -4.08134 1.30735 5 
18970 1 14.0901 9.78391 -1.83529 7.71284 5 
18971 1 16.4733 8.21394 -1.6425 5.17568 5 
18972 1 13.7959 7.03793 -0.932166 13.8145 5 
18973 1 16.4927 5.40032 -1.49917 6.81784 5 
18998 1 66.3101 23.5197 -14.4639 6.84868e-05 1 
18999 1 68.7207 22.1183 -13.8294 0.000109382 1 
19000 1 66.3082 20.6585 -14.3269 9.99958e-05 1 
19001 1 68.7193 19.2573 -13.6889 0.000198217 1 
19002 1 67.3795 20.7813 -11.6738 0.000503429 1 
19003 1 69.7826 19.3802 -11.0324 0.00120142 1 
19004 1 67.3821 17.9211 -11.5301 0.00096691 1 
19005 1 69.7849 16.5217 -10.8763 0.00186164 1 
19006 1 68.4489 18.0456 -8.85482 0.00434745 1 
19007 1 70.8362 16.6496 -8.18875 0.011394 1 
19008 1 68.4561 15.1894 -8.70289 0.00432477 1 
19009 1 70.8359 13.796 -8.02582 0.00808595 1 
19010 1 69.5123 15.3329 -5.98286 0.0152438 1 
19011 1 10.7129 13.9484 -5.29637 0.0416345 1 
19012 1 69.5058 12.4727 -5.83693 0.0275214 1 
19013 1 10.6976 11.0865 -5.12307 0.0717111 1 
19014 1 70.5021 12.6967 -3.07638 0.8456 5 
19015 1 11.6836 11.3232 -2.27943 5.31075 5 
19016 1 9.26337 9.84842 -2.92695 5.49097 5 
19017 1 11.5948 8.49636 -2.10178 5.7609 5 
19027 1 63.8948 22.0589 -14.9599 6.59731e-05 1 
19028 1 62.557 23.5786 -12.9432 0.000219682 1 
19029 1 64.9704 22.1796 -12.3113 0.000294579 1 
19030 1 62.5535 20.7174 -12.8052 0.000257295 1 
19031 1 64.9698 19.319 -12.1739 0.000479364 1 
19032 1 63.6353 20.8332 -10.1607 0.00128782 1 
19033 1 66.049 19.4399 -9.51747 0.00235159 1 
19034 1 63.635 17.974 -10.0265 0.00205022 1 
19035 1 66.0548 16.5808 -9.37776 0.0035917 1 
19036 1 64.7282 18.0884 -7.3776 0.00944712 1 
19037 1 67.1318 16.7084 -6.6882 0.00918978 1 
19038 1 64.7335 15.2273 -7.24855 0.0121587 1 
19039 1 67.1362 13.8501 -6.55066 0.0142056 1 
19040 1 65.8047 15.3613 -4.55733 0.0306676 1 
19041 1 68.163 14.0263 -3.82248 0.166447 1 
19042 1 65.7794 12.4951 -4.45206 0.262747 1 
19043 1 68.0955 11.1631 -3.71231 1.43017 5 
19044 1 67.068 12.7214 -1.57241 6.06246 5 
19045 1 8.53435 11.5332 -0.632882 5.55482 5 
19046 1 67.4758 9.90767 -1.29057 1.06551 5 
19047 1 61.2168 22.2308 -10.7872 0.000869065 1 
19048 1 61.2112 19.3711 -10.647 0.00114361 1 
19049 1 62.3014 19.4761 -8.01561 0.00498823 1 
19050 1 62.3007 16.6183 -7.88944 0.00792747 1 
19051 1 60.9692 18.1012 -5.86892 0.0250981 1 
19052 1 63.412 16.7079 -5.26686 0.0508674 1 
19053 1 60.9755 15.2424 -5.7631 0.0511848 1 
19054 1 63.4116 13.8466 -5.14854 0.0493376 1 
19055 1 62.0694 15.2637 -3.17507 6.45464 5 
19056 1 64.5458 13.9685 -2.42341 6.61625 2 
19057 1 62.1791 12.3958 -3.03498 7.19128 2 
19058 1 64.7631 11.1026 -2.24172 6.12699 5 
19059 1 62.258 13.9073 -0.721957 1.27012 5 
19060 1 62.5584 11.0483 -0.539353 0.217759 1 
19729 1 57.6975 9.252 -13.4147 0.000791734 1 
19730 1 60.113 7.85019 -12.8141 0.00151832 1 
19731 1 57.6875 6.39837 -13.3046 0.00116823 1 
19732 1 60.1074 4.99529 -12.7134 0.0035453 1 
19733 1 58.7476 6.52133 -10.6698 0.00718238 1 
19734 1 58.7361 3.67047 -10.5841 0.0152399 1 
19735 1 59.7953 3.80204 -8.02155 0.132668 1 
19736 1 59.7971 0.953198 -7.87379 0.0172924 1 
19867 1 52.885 12.0521 -14.6607 0.000313541 1 
19868 1 55.2907 10.6524 -14.0307 0.000468727 1 
19869 1 52.8748 9.19938 -14.5363 0.000261997 1 
19870 1 55.2802 7.79976 -13.9139 0.000437314 1 
19871 1 53.9452 9.32609 -11.8707 0.00167444 1 
19872 1 56.3432 7.92646 -11.2563 0.00222116 1 
19873 1 53.9285 6.47462 -11.7615 0.000464997 1 
19874 1 56.3289 5.07448 -11.1501 0.00324809 1 
19875 1 54.9891 6.6041 -9.09737 0.001435 1 
19876 1 57.3855 5.20247 -8.48799 0.0434163 1 
19877 1 54.9615 3.75488 -9.00137 0.010503 1 
19878 1 57.351 2.35078 -8.44515 0.0382863 1 
19879 1 55.9874 3.89957 -6.35654 0.087967 1 
19880 1 58.3598 2.48415 -5.8992 0.361106 1 
19881 1 55.9842 1.03812 -6.23242 0.0444412 1 
19882 1 57.0116 1.21942 -3.59696 0.790038 1 
20015 1 49.1246 12.1205 -13.145 0.000441911 1 
20016 1 51.5386 10.7237 -12.5082 0.00066002 1 
20017 1 49.1133 9.27047 -13.0152 0.000372189 1 
20018 1 51.5253 7.87323 -12.3861 0.000507662 1 
20019 1 50.1841 9.39731 -10.364 0.00182793 1 
20020 1 52.5972 8.0029 -9.72128 0.00290786 1 
20021 1 50.1714 6.54768 -10.2428 0.00151641 1 
20022 1 52.5771 5.15197 -9.60853 0.00295485 1 
20023 1 51.2427 6.67766 -7.5872 0.00647431 1 
20024 1 53.6347 5.29185 -6.92244 0.023379 1 
20025 1 51.2349 3.82432 -7.46534 0.00610277 1 
20026 1 53.6205 2.43546 -6.80865 0.0200085 1 
20027 1 52.2937 3.96544 -4.77552 0.022801 1 
20028 1 54.6582 2.60128 -4.08278 0.261777 1 
20029 1 52.3074 1.11281 -4.63931 0.0253812 1 
20030 1 53.4506 1.33534 -1.85558 0.422648 1 
20161 1 44.3026 14.9233 -14.4208 0.000295308 1 
20162 1 46.7121 13.52 -13.7811 0.00042988 1 
20163 1 44.2956 12.0694 -14.2783 0.000400023 1 
20164 1 46.7017 10.6683 -13.6431 0.000500313 1 
20165 1 45.3513 12.1901 -11.6151 0.00152693 1 
20166 1 47.762 10.791 -10.9895 0.00162794 1 
20167 1 45.3403 9.34037 -11.4772 0.00193933 1 
20168 1 47.7517 7.9442 -10.8632 0.00157357 1 
20169 1 46.3814 9.46248 -8.82476 0.00669094 1 
20170 1 48.8165 8.07136 -8.23092 0.00663588 1 
20171 1 46.3776 6.61748 -8.70966 0.00783143 1 
20172 1 48.8137 5.21853 -8.10965 0.00554387 1 
20173 1 47.4347 6.74253 -6.11671 0.0326655 1 
20174 1 49.8843 5.34017 -5.4733 0.0209553 1 
20175 1 47.4477 3.88963 -5.98735 0.0195389 1 
20176 1 49.9011 2.48044 -5.34692 0.0218929 1 
20177 1 48.5427 3.95406 -3.39587 0.151771 1 
20178 1 50.9901 2.62642 -2.63813 0.167134 1 
20179 1 48.5696 1.11306 -3.25876 0.0993559 1 
71291 2 61.078 73.1753 3.87586 0.0616241 1 
20312 1 41.8907 13.4721 -14.9205 0.000270386 1 
20313 1 40.5481 14.9968 -12.8994 0.000659946 1 
20314 1 42.9495 13.5934 -12.2532 0.00101928 1 
20315 1 40.5472 12.143 -12.7574 0.000895536 1 
20316 1 42.9431 10.7411 -12.1101 0.00129387 1 
20317 1 41.5966 12.2664 -10.0725 0.00300484 1 
20318 1 43.9811 10.8636 -9.43303 0.00526705 1 
20319 1 41.5929 9.41443 -9.92937 0.00412172 1 
20320 1 43.9706 8.0132 -9.29853 0.0118975 1 
20321 1 42.6118 9.54059 -7.21856 0.0175218 1 
20322 1 44.9811 8.13684 -6.64451 0.0912542 1 
20323 1 42.6173 6.69264 -7.0473 0.0823669 1 
20324 1 44.983 5.29283 -6.52818 0.098149 1 
20325 1 43.6232 6.82199 -4.22926 1.07769 5 
20326 1 46.0559 5.40817 -3.99424 6.30352 5 
20327 1 43.6139 3.95728 -4.29471 0.262456 1 
20328 1 46.0826 2.54482 -3.89476 0.233973 1 
20329 1 44.6211 4.28735 -1.77905 8.27975 5 
20330 1 47.0833 2.53298 -1.3626 7.45078 2 
20331 1 44.7641 0.987464 -1.96183 10.2629 5 
20464 1 35.7305 17.7994 -14.1895 0.000216911 1 
20465 1 38.1424 16.3988 -13.5467 0.000415957 1 
20466 1 35.7324 14.9437 -14.0554 0.000457569 1 
20467 1 38.1445 13.544 -13.4089 0.000720371 1 
20468 1 36.8085 15.0647 -11.39 0.001573 1 