ITEM: TIMESTEP
0
ITEM: NUMBER OF ATOMS
7136
ITEM: BOX BOUNDS xy xz yz pp pp ss
0 46.609490755 11.770073423
0 114.376048068 0
-103.4673020658005 110.8629849661412 0
ITEM: ATOMS id type x y z c_csym c_cna 
5217 1 0.810922 0.086136 -12.2357 0.00100507 1 
6206 1 0.7944 6.96445 -13.5625 0.000339836 1 
6208 1 1.50699 4.38474 -14.5887 0.000253745 1 
6210 1 4.09038 4.61443 -13.3906 0.000426516 1 
6211 1 6.44767 4.30538 -14.999 0.00021022 1 
6212 1 4.8009 2.03799 -14.4165 0.000309031 1 
6214 1 7.38549 2.27012 -13.2246 0.000652038 1 
6215 1 9.74538 1.9614 -14.8285 0.00017516 1 
6216 1 1.73659 4.92486 -11.7768 0.00118324 1 
6217 1 34.9402 2.66348 -11.1995 0.00157575 1 
6218 1 2.44957 2.35032 -12.8032 0.00104145 1 
6219 1 2.68171 2.8895 -9.97454 0.00487528 1 
6220 1 5.02859 2.57911 -11.6029 0.00177972 1 
6221 1 3.3908 0.318784 -11.0172 0.00306028 1 
6222 1 5.9638 0.545093 -9.82403 0.00323827 1 
6223 1 8.32246 0.235661 -11.4557 0.00130062 1 
6224 1 0.335847 3.20297 -8.37127 0.00588531 1 
6225 1 1.04869 0.632204 -9.41088 0.00379112 1 
6226 1 1.28574 1.17538 -6.56544 0.0134154 1 
6227 1 3.62137 0.861027 -8.17 0.0158128 1 
7255 1 35.6333 13.8525 -14.885 0.000226102 1 
7259 1 4.08959 11.5042 -14.7204 0.000255952 1 
7263 1 7.38952 9.15573 -14.5474 0.000208688 1 
7267 1 10.6877 6.81054 -14.3677 0.000140673 1 
7271 1 13.9836 4.46649 -14.1887 0.00020148 1 
7275 1 17.2807 2.12032 -14.0125 0.00041987 1 
7277 1 1.72687 11.817 -13.1144 0.000525993 1 
7278 1 34.9199 9.54652 -12.5337 0.00054402 1 
7279 1 2.439 9.2338 -14.1444 0.000296351 1 
7280 1 2.66123 9.77365 -11.3493 0.00146931 1 
7281 1 5.02695 9.46483 -12.953 0.000813379 1 
7282 1 3.37713 7.19158 -12.3706 0.00088351 1 
7283 1 5.73812 6.88396 -13.9755 0.000441866 1 
7284 1 5.96523 7.41948 -11.1866 0.00297998 1 
7285 1 8.32972 7.11705 -12.7764 0.000597667 1 
7286 1 6.67609 4.84399 -12.2011 0.0014834 1 
7287 1 9.03713 4.53965 -13.8008 0.000287457 1 
7288 1 9.26815 5.07837 -11.004 0.00136525 1 
7289 1 11.6279 4.77648 -12.5934 0.000309084 1 
7290 1 9.97482 2.50563 -12.0304 0.000717021 1 
7291 1 12.3362 2.19838 -13.6258 0.000220911 1 
7292 1 12.5674 2.74551 -10.8238 0.000838641 1 
7293 1 14.9271 2.43434 -12.4139 0.000522082 1 
7294 1 13.2789 0.166907 -11.8616 0.000664785 1 
7295 1 15.875 0.403466 -10.6445 0.00132134 1 
7296 1 18.2267 0.0884414 -12.2356 0.00111527 1 
7297 1 35.141 10.0839 -9.72701 0.00232938 1 
7298 1 1.01905 7.50191 -10.7554 0.00162859 1 
7299 1 1.24001 8.02628 -7.94499 0.00848761 1 
7300 1 3.59711 7.72076 -9.58005 0.00497893 1 
7301 1 1.96325 5.45617 -8.95668 0.00573498 1 
7302 1 4.31587 5.14722 -10.5843 0.00250748 1 
7303 1 4.53473 5.66847 -7.77817 0.0143445 1 
7304 1 6.90136 5.36941 -9.41497 0.0131913 1 
7305 1 5.25306 3.11168 -8.77161 0.0115187 1 
7306 1 7.61015 2.80569 -10.4238 0.00419879 1 
7307 1 7.83148 3.32445 -7.62461 0.027606 1 
7308 1 10.2004 3.04572 -9.23413 0.00388748 1 
7309 1 8.54278 0.770226 -8.65648 0.0058505 1 
7310 1 10.9122 0.474171 -10.27 0.00196715 1 
7311 1 11.1263 1.01751 -7.48439 0.0105858 1 
7312 1 13.5094 0.717051 -9.06796 0.00273998 1 
7313 1 2.18832 5.96857 -6.11711 0.0409878 1 
7314 1 0.571344 3.72887 -5.51608 0.0281648 1 
7315 1 2.91327 3.42351 -7.11969 0.024075 1 
7316 1 3.17105 3.91709 -4.21815 0.436212 1 
7317 1 5.47899 3.62276 -5.91907 0.151306 1 
7318 1 3.85169 1.38704 -5.29147 0.114457 1 
7319 1 6.18412 1.06906 -6.99383 0.0174906 1 
7320 1 6.35097 1.63494 -4.09684 0.36104 1 
7321 1 8.73457 1.29266 -5.85077 0.0406408 1 
7322 1 0.777233 4.27409 -2.68277 0.389325 1 
7323 1 1.54478 1.69629 -3.66281 0.222009 1 
7324 1 1.56651 2.35273 -0.776057 6.40511 2 
7325 1 4.06431 1.97777 -2.15178 5.60787 5 
7326 1 34.7409 0.0323958 -0.442739 6.49449 2 
8396 1 27.1665 1.96074 -14.8385 0.000203261 1 
8398 1 36.5853 18.6965 -14.4364 0.000222524 1 
8399 1 34.9282 16.432 -13.8514 0.000394456 1 
8401 1 2.67505 16.6665 -12.6574 0.000708847 1 
8402 1 5.0381 16.3527 -14.2612 0.000200259 1 
8403 1 3.38086 14.0863 -13.6898 0.000418903 1 
8405 1 5.97297 14.3197 -12.4886 0.000488979 1 
8406 1 8.33416 14.0064 -14.0823 0.000221648 1 
8407 1 6.68104 11.7374 -13.5194 0.00033118 1 
8409 1 9.27375 11.9709 -12.3068 0.000525077 1 
8410 1 11.6278 11.6603 -13.9014 0.000317082 1 
8411 1 9.9806 9.39017 -13.3382 0.000276366 1 
8412 1 12.3346 9.08014 -14.9344 0.000157321 1 
8413 1 12.5669 9.62475 -12.1219 0.000606525 1 
8414 1 14.9178 9.31336 -13.7276 0.000299192 1 
8415 1 13.2747 7.0456 -13.1556 0.000373384 1 
8416 1 15.6274 6.73337 -14.7597 0.000188315 1 
8417 1 15.8566 7.27624 -11.9464 0.000645423 1 
8418 1 18.2099 6.9637 -13.5603 0.000339271 1 
8419 1 16.569 4.69853 -12.9792 0.000518953 1 
8420 1 18.922 4.38541 -14.5891 0.00025963 1 
8421 1 19.1507 4.92544 -11.7767 0.00119324 1 
8422 1 21.5058 4.61531 -13.3973 0.000458535 1 
8423 1 19.8644 2.3515 -12.8068 0.00105582 1 
8424 1 22.2176 2.03848 -14.4246 0.000292808 1 
8425 1 22.4451 2.5789 -11.6175 0.00139268 1 
8426 1 24.8048 2.26992 -13.2376 0.000757339 1 
8427 1 25.7449 0.233441 -11.471 0.00144117 1 
8428 1 35.1513 16.9792 -11.0372 0.0015659 1 
8429 1 35.8562 14.3997 -12.0781 0.000856424 1 
8430 1 36.0723 14.9453 -9.27297 0.0031735 1 
8431 1 3.60356 14.6335 -10.8929 0.0018922 1 
8432 1 1.94536 12.3599 -10.3173 0.00225667 1 
8433 1 4.31467 12.0488 -11.9264 0.00126454 1 
8434 1 4.53442 12.5908 -9.1478 0.00626551 1 
8435 1 6.91105 12.281 -10.726 0.00134978 1 
8436 1 5.25059 10.0021 -10.1728 0.00442534 1 
8437 1 7.62113 9.69706 -11.753 0.000977524 1 
8438 1 7.85228 10.2336 -8.97042 0.00403141 1 
8439 1 10.2152 9.93202 -10.5326 0.00133919 1 
8440 1 8.56272 7.65212 -9.98651 0.00301555 1 
8441 1 10.9217 7.35343 -11.5624 0.000719184 1 
8442 1 11.1563 7.89452 -8.75143 0.00417856 1 
8443 1 13.5064 7.58885 -10.3382 0.00157614 1 
8444 1 11.8597 5.32016 -9.78621 0.00139353 1 
8445 1 14.2158 5.01193 -11.3768 0.000741067 1 
8446 1 14.4455 5.55442 -8.55562 0.00285937 1 
8447 1 16.7994 5.23853 -10.1601 0.00185794 1 
8448 1 15.1601 2.98086 -9.6003 0.00196747 1 
8449 1 17.5152 2.66506 -11.1955 0.00159544 1 
8450 1 17.7519 3.20407 -8.36621 0.00740109 1 
8451 1 20.0968 2.89074 -9.97987 0.005217 1 
8452 1 18.4675 0.634495 -9.41034 0.00440607 1 
8453 1 20.8082 0.32007 -11.0238 0.00343884 1 
8454 1 21.045 0.862505 -8.17893 0.0195774 1 
8455 1 23.3856 0.542525 -9.84184 0.00335708 1 
8456 1 2.15722 12.8958 -7.52913 0.00990115 1 
8457 1 35.3644 10.6091 -6.9188 0.0134128 1 
8458 1 2.87632 10.3058 -8.56742 0.00682463 1 
8459 1 3.09153 10.8165 -5.80152 0.040473 1 
8460 1 5.46691 10.5307 -7.42216 0.0232868 1 
8461 1 3.80522 8.23777 -6.80833 0.0286919 1 
8462 1 6.18723 7.94285 -8.42327 0.0207285 1 
8463 1 6.39064 8.44405 -5.71335 0.14081 1 
8464 1 8.79405 8.17959 -7.2105 0.0165633 1 
8465 1 7.12983 5.86771 -6.66815 0.123823 1 
8466 1 9.50033 5.61131 -8.21103 0.00955001 1 
8467 1 9.71738 6.14765 -5.40564 0.0628526 1 
8468 1 12.0807 5.86579 -6.96943 0.00640414 1 
8469 1 10.3959 3.58595 -6.43567 0.0211965 1 
8470 1 12.7915 3.29327 -8.01975 0.0049413 1 
8471 1 12.9903 3.8432 -5.22672 0.0150072 1 
8472 1 15.4006 3.52544 -6.77858 0.0144287 1 
8473 1 13.7402 1.26736 -6.28609 0.0128479 1 
8474 1 16.116 0.952017 -7.83364 0.00461519 1 
8475 1 16.3649 1.49871 -5.01617 0.0342338 1 
8476 1 18.7162 1.17752 -6.56408 0.0175523 1 
8477 1 35.6468 11.1026 -4.10381 0.181488 1 
8478 1 1.47412 8.53092 -5.12696 0.084785 1 
8479 1 1.88975 8.93655 -2.25066 6.68033 2 
8480 1 4.04654 8.69378 -4.03481 4.88896 5 
8481 1 2.51133 6.46184 -3.2739 2.95436 5 
8482 1 4.76742 6.15679 -4.99319 1.82453 5 
8483 1 4.48558 7.45623 -1.38379 8.88841 5 
8484 1 7.33848 6.38206 -3.98967 6.70137 5 
8485 1 5.58915 4.33214 -2.86154 8.28245 5 
8486 1 8.01161 3.83477 -4.79168 0.281936 1 
8487 1 8.18275 4.41218 -1.93984 5.03163 5 
8488 1 10.5639 4.13949 -3.64606 0.0813799 1 
8489 1 8.94796 1.79417 -3.08716 0.11841 1 
8490 1 11.3285 1.55039 -4.7333 0.0393867 1 
8491 1 11.5119 2.09599 -2.03456 0.252536 1 
8492 1 13.931 1.81781 -3.52958 0.0268916 1 
8493 1 34.9026 6.74283 -1.71446 1.84071 5 
8494 1 3.22462 4.76091 -1.14396 6.1675 5 
8495 1 6.70095 1.97183 -1.30459 4.55251 5 
8496 1 12.447 0.0260939 -0.400302 8.74172 5 
9564 1 2.70693 23.5407 -14.003 0.000213566 1 
9568 1 5.99592 21.196 -13.8138 0.000122125 1 
9570 1 6.69443 18.6175 -14.8357 0.00010948 1 
9572 1 9.28312 18.8508 -13.6267 0.000203807 1 
9574 1 9.98523 16.2725 -14.6528 0.000213343 1 
9576 1 12.57 16.5058 -13.4446 0.000452259 1 
9578 1 13.2743 13.9277 -14.4746 0.000330788 1 
9580 1 15.8556 14.1602 -13.2757 0.000348076 1 
9581 1 18.2137 13.8484 -14.8906 0.000195557 1 
9582 1 16.5629 11.5809 -14.3075 0.000222402 1 
9584 1 19.1459 11.8125 -13.1168 0.000514829 1 
9585 1 21.5087 11.5023 -14.7241 0.000278388 1 
9586 1 19.856 9.23223 -14.1457 0.000313151 1 
9588 1 22.4442 9.46427 -12.9568 0.000795544 1 
9589 1 24.8078 9.1566 -14.5535 0.000241528 1 
9590 1 23.1548 6.88484 -13.9819 0.00046189 1 
9592 1 25.7473 7.11882 -12.7867 0.000593115 1 
9593 1 28.1075 6.8118 -14.3773 0.000133826 1 
9594 1 26.4567 4.54027 -13.8123 0.000334929 1 
9596 1 29.0496 4.77702 -12.6067 0.00029311 1 
9597 1 31.4067 4.46623 -14.1975 0.000163399 1 
9598 1 29.7594 2.19715 -13.6364 0.00022666 1 
9600 1 32.3518 2.43268 -12.4229 0.000471015 1 
9601 1 34.7053 2.11877 -14.015 0.000403312 1 
9602 1 35.1898 23.8533 -12.4032 0.000762702 1 
9603 1 35.8866 21.2736 -13.4161 0.000314784 1 
9604 1 36.1209 21.8191 -10.6171 0.00184406 1 
9605 1 3.64089 21.5085 -12.2161 0.000429814 1 
9606 1 36.8147 19.2433 -11.6297 0.000992354 1 
9607 1 4.33677 18.931 -13.2345 0.000259601 1 
9608 1 4.56858 19.4791 -10.4275 0.0011408 1 
9609 1 6.92858 19.1647 -12.0248 0.000380466 1 
9610 1 5.26712 16.9009 -11.456 0.000742999 1 
9611 1 7.62951 16.5861 -13.0519 0.000334705 1 
9612 1 7.86122 17.1333 -10.2401 0.00120567 1 
9613 1 10.2183 16.8182 -11.8365 0.000729534 1 
9614 1 8.56713 14.5523 -11.2735 0.000838214 1 
9615 1 10.9224 14.2398 -12.8678 0.00054467 1 
9616 1 11.1558 14.784 -10.0464 0.00187314 1 
9617 1 13.5035 14.4729 -11.6541 0.00151444 1 
9618 1 11.8606 12.2049 -11.0842 0.00120265 1 
9619 1 14.2095 11.8937 -12.6917 0.000686335 1 
9620 1 14.4365 12.4371 -9.86684 0.00290598 1 
9621 1 16.7867 12.1229 -11.496 0.000830506 1 
9622 1 15.1455 9.85519 -10.9112 0.000974328 1 
9623 1 17.4977 9.54287 -12.5303 0.000517742 1 
9624 1 17.7201 10.0761 -9.71967 0.00217522 1 
9625 1 20.0785 9.77044 -11.3485 0.00145763 1 
9626 1 18.4347 7.50009 -10.7498 0.00172278 1 
9627 1 20.7925 7.1917 -12.3731 0.000837289 1 
9628 1 21.013 7.72096 -9.58006 0.00449815 1 
9629 1 23.3812 7.4209 -11.1933 0.00241164 1 
9630 1 21.7311 5.14843 -10.5952 0.00217447 1 
9631 1 24.0935 4.84558 -12.2132 0.00136645 1 
9632 1 24.3195 5.37267 -9.42995 0.00906631 1 
9633 1 26.688 5.07984 -11.0211 0.00130398 1 
9634 1 25.0316 2.80469 -10.4472 0.0048953 1 
9635 1 27.3975 2.50467 -12.0461 0.000685244 1 
9636 1 27.6281 3.04475 -9.25764 0.00347328 1 
9637 1 29.9921 2.74434 -10.8398 0.000824162 1 
9638 1 28.3375 0.471568 -10.2849 0.00180242 1 
9639 1 30.7032 0.164476 -11.8708 0.000624942 1 
9640 1 30.9329 0.714777 -9.07929 0.0023392 1 
9641 1 33.2984 0.400785 -10.6502 0.00119069 1 
9642 1 2.20193 19.7902 -8.82587 0.00530001 1 
9643 1 35.3673 17.5268 -8.21624 0.00707007 1 
9644 1 2.89648 17.2152 -9.85437 0.00337618 1 
9645 1 3.10691 17.7686 -7.05661 0.0171697 1 
9646 1 5.49117 17.4519 -8.65344 0.00285727 1 
9647 1 3.81909 15.1806 -8.10918 0.00898263 1 
9648 1 6.20054 14.8669 -9.69263 0.00177241 1 
9649 1 6.42388 15.4159 -6.90779 0.005705 1 
9650 1 8.80027 15.0975 -8.46378 0.00301485 1 
9651 1 7.13983 12.8227 -7.94538 0.00497282 1 
9652 1 9.50859 12.5138 -9.4994 0.0022423 1 
9653 1 9.74232 13.0549 -6.68791 0.00838413 1 
9654 1 12.094 12.7474 -8.25537 0.00392108 1 
9655 1 10.4491 10.4712 -7.72286 0.00653757 1 
9656 1 12.7985 10.1668 -9.30205 0.00215405 1 
9657 1 13.0301 10.7037 -6.47176 0.00820014 1 
9658 1 15.3714 10.3912 -8.08932 0.00313275 1 
9659 1 13.7344 8.12945 -7.507 0.00706409 1 
9660 1 16.0844 7.81142 -9.12546 0.00180577 1 
9661 1 16.3132 8.337 -6.30335 0.00724706 1 
9662 1 18.6611 8.01703 -7.93101 0.00921238 1 
9663 1 17.0354 5.76553 -7.32791 0.00819917 1 
9664 1 19.3779 5.45663 -8.95535 0.00748605 1 
9665 1 19.6256 5.95735 -6.10049 0.0754096 1 
9666 1 21.9503 5.67154 -7.79698 0.0205558 1 
9667 1 20.3324 3.42304 -7.1326 0.0601359 1 
9668 1 22.6728 3.10909 -8.80205 0.00748411 1 
9669 1 22.9184 3.60896 -5.99973 1.41449 5 
9670 1 25.266 3.3201 -7.67296 0.0327211 1 
9671 1 23.6172 1.05967 -7.02406 0.035507 1 
9672 1 25.9706 0.765028 -8.68087 0.00764332 1 
9673 1 26.1668 1.28687 -5.88186 0.0569177 1 
9674 1 28.5519 1.01652 -7.5015 0.00855122 1 
9675 1 35.5725 18.0824 -5.37895 0.0424598 1 
9676 1 36.2794 15.4857 -6.47331 0.0148631 1 
9677 1 1.66758 16.0262 -3.7085 0.211266 1 
9678 1 4.0271 15.7286 -5.35519 0.0391931 1 
9679 1 2.38501 13.406 -4.75826 0.065681 1 
9680 1 4.74861 13.1263 -6.39924 0.0314641 1 
9681 1 4.94586 13.6737 -3.6971 0.242774 1 
9682 1 7.35829 13.3657 -5.18164 0.0160793 1 
9683 1 5.66253 11.0563 -4.71701 0.170005 1 
9684 1 8.07125 10.7657 -6.20563 0.0131889 1 
9685 1 8.30073 11.3322 -3.47448 0.152439 1 
9686 1 10.6823 11.0147 -4.90736 0.0384465 1 
9687 1 9.01008 8.7187 -4.46861 0.105166 1 
9688 1 11.3879 8.43754 -5.92341 0.0289746 1 
9689 1 11.5751 8.97105 -3.07632 3.04952 5 
9690 1 13.9657 8.6679 -4.65348 0.058378 1 
9691 1 12.2726 6.42168 -4.1412 0.0643942 1 
9692 1 14.6691 6.09805 -5.72813 0.0175544 1 
9693 1 14.8289 6.65177 -2.881 0.12628 1 
9694 1 17.2766 6.28217 -4.4971 0.051156 1 
9695 1 15.5939 4.07503 -3.97379 0.0246521 1 
9696 1 18.0272 3.72667 -5.5046 0.0684205 1 
9697 1 18.2202 4.25242 -2.70354 0.930174 1 
9698 1 20.7154 3.90838 -4.17735 2.30816 5 
9699 1 18.9998 1.7042 -3.66299 0.294268 1 
9700 1 21.2943 1.396 -5.30377 0.173117 1 
9701 1 21.5024 2.03369 -2.14175 5.59915 5 
9702 1 23.7762 1.66862 -4.11728 1.16742 5 
9703 1 34.9798 13.722 -3.03599 0.526577 5 
9704 1 2.66429 13.7808 -1.97571 7.39593 5 
9705 1 1.32034 11.3773 -1.18364 7.38197 5 
9706 1 3.36146 11.2426 -3.01314 5.75836 5 
9707 1 5.85986 11.6451 -2.07703 8.22863 5 
9708 1 6.57752 9.03087 -3.08912 5.15496 5 
9709 1 6.44084 9.53855 -0.482806 7.99873 5 
9710 1 9.08274 9.24691 -1.76679 7.03449 5 
9711 1 7.19553 6.98258 -1.42978 10.21 5 
9712 1 9.85748 6.70991 -2.55873 2.50304 5 
9713 1 12.3162 7.06603 -1.17263 8.69545 5 
9714 1 10.6882 4.72431 -0.812585 6.07444 5 
9715 1 13.1295 4.41733 -2.44193 0.106178 1 
9716 1 15.6986 4.61332 -1.16934 0.388632 1 
9717 1 14.0689 2.3327 -0.792751 0.229264 1 
9718 1 16.5244 2.05372 -2.22978 0.161308 1 
9719 1 18.9774 2.34769 -0.757375 6.45339 2 
9720 1 17.3283 0.0185454 -0.438628 6.49911 2 
10780 1 9.30217 25.7299 -14.9774 0.000207734 1 
10784 1 12.5867 23.3851 -14.8011 0.000131026 1 
10788 1 15.8757 21.0388 -14.6267 0.000158112 1 
10792 1 19.1681 18.6936 -14.4488 0.000230481 1 
10796 1 22.4621 16.3499 -14.2676 0.000225729 1 
10800 1 25.7566 14.0068 -14.0849 0.000251454 1 
10804 1 29.0486 11.6635 -13.905 0.000315924 1 
10806 1 29.7553 9.08232 -14.9407 0.000139685 1 
10808 1 32.3395 9.31644 -13.733 0.000304565 1 
10810 1 33.0504 6.73425 -14.7651 0.00016924 1 
10811 1 35.2117 30.7327 -13.7597 0.00026181 1 
10812 1 35.9107 28.1522 -14.7734 0.000161338 1 
10813 1 36.1536 28.7077 -11.972 0.000736792 1 
10814 1 3.66769 28.3891 -13.5653 0.00034551 1 
10815 1 36.8504 26.1229 -12.9878 0.000435751 1 
10816 1 4.36378 25.8079 -14.5832 0.000149861 1 
10817 1 4.61055 26.3602 -11.7773 0.00070277 1 
10818 1 6.95646 26.0444 -13.3714 0.000384761 1 
10819 1 5.30188 23.7764 -12.7956 0.000321213 1 
10820 1 7.65074 23.463 -14.3944 0.000131693 1 
10821 1 7.89313 24.0125 -11.5823 0.000570142 1 
10822 1 10.2373 23.6988 -13.1884 0.000333568 1 
10823 1 8.58505 21.4302 -12.6045 0.000215158 1 
10824 1 10.9349 21.1173 -14.2115 0.000144889 1 
10825 1 11.1691 21.6638 -11.3986 0.000681334 1 
10826 1 13.5195 21.3517 -13.0149 0.000249952 1 
10827 1 11.868 19.0836 -12.4198 0.000446248 1 
10828 1 14.2208 18.7719 -14.0347 0.000134859 1 
10829 1 14.4499 19.3166 -11.2248 0.000413621 1 
10830 1 16.8074 19.0054 -12.8417 0.000321594 1 
10831 1 15.151 16.7384 -12.2468 0.000434022 1 
10832 1 17.5091 16.4271 -13.8638 0.000257321 1 
10833 1 17.7335 16.9715 -11.0598 0.000914247 1 
10834 1 20.0989 16.661 -12.6696 0.000587928 1 
10835 1 18.4378 14.3923 -12.0868 0.000756741 1 
10836 1 20.8023 14.0822 -13.6958 0.000418251 1 
10837 1 21.0266 14.6262 -10.9005 0.00178789 1 
10838 1 23.3957 14.3171 -12.4934 0.000541366 1 
10839 1 21.7343 12.0451 -11.9295 0.00124831 1 
10840 1 24.1006 11.7371 -13.524 0.000371826 1 
10841 1 24.3304 12.2801 -10.7298 0.00138105 1 
10842 1 26.6937 11.9731 -12.3115 0.000492926 1 
10843 1 25.0383 9.69855 -11.7601 0.0009694 1 
10844 1 27.3996 9.39249 -13.3463 0.000249688 1 
10845 1 27.6328 9.93583 -10.5436 0.00101635 1 
10846 1 29.9869 9.62871 -12.1314 0.000519911 1 
10847 1 28.3408 7.35573 -11.5769 0.000560483 1 
10848 1 30.6963 7.04727 -13.1665 0.000262814 1 
10849 1 30.9275 7.59187 -10.3562 0.000990227 1 
10850 1 33.2798 7.27819 -11.9558 0.000615898 1 
10851 1 31.6392 5.01209 -11.391 0.000519667 1 
10852 1 33.9937 4.69813 -12.9854 0.00048782 1 
10853 1 34.2241 5.23844 -10.1705 0.00172153 1 
10854 1 37.0966 26.6792 -10.1962 0.00211865 1 
10855 1 35.4281 24.403 -9.61945 0.0049768 1 
10856 1 2.9493 24.0899 -11.2063 0.00128888 1 
10857 1 3.20037 24.6428 -8.42637 0.007283 1 
10858 1 5.55065 24.3269 -9.9916 0.00176196 1 
10859 1 3.88143 22.0558 -9.41804 0.00245728 1 
10860 1 6.23528 21.7436 -11.0051 0.000557012 1 
10861 1 6.47857 22.2924 -8.19399 0.00309622 1 
10862 1 8.82339 21.9765 -9.7909 0.000705201 1 
10863 1 7.16122 19.7129 -9.2103 0.00163582 1 
10864 1 9.51698 19.3962 -10.811 0.00059726 1 
10865 1 9.74898 19.9391 -7.99146 0.00192033 1 
10866 1 12.0996 19.6266 -9.60028 0.00205462 1 
10867 1 10.451 17.3621 -9.01374 0.00235585 1 
10868 1 12.8 17.05 -10.6219 0.0020898 1 
10869 1 13.0292 17.592 -7.7839 0.0110625 1 
10870 1 15.3742 17.2809 -9.43115 0.00165784 1 
10871 1 13.7312 15.0167 -8.81867 0.00766741 1 
10872 1 16.0782 14.7027 -10.4608 0.00128304 1 
10873 1 16.2958 15.241 -7.64023 0.00479973 1 
10874 1 18.6551 14.9337 -9.28747 0.00302827 1 
10875 1 17.0063 12.659 -8.68058 0.00327072 1 
10876 1 19.3653 12.3512 -10.3191 0.00217209 1 
10877 1 19.5775 12.883 -7.53169 0.00930127 1 
10878 1 21.9544 12.5838 -9.14879 0.00600403 1 
10879 1 20.2957 10.296 -8.56138 0.00626427 1 
10880 1 22.6679 10.0001 -10.174 0.00402853 1 
10881 1 22.8843 10.525 -7.41819 0.0223027 1 
10882 1 25.2677 10.2357 -8.97754 0.00375457 1 
10883 1 23.603 7.94294 -8.42521 0.0154104 1 
10884 1 25.9785 7.65529 -10.0003 0.00261077 1 
10885 1 26.2046 8.18429 -7.22951 0.01215 1 
10886 1 28.5741 7.89712 -8.77429 0.00309188 1 
10887 1 26.9199 5.6138 -8.23643 0.00733446 1 
10888 1 29.2819 5.32207 -9.80433 0.00155617 1 
10889 1 29.5077 5.86907 -6.98816 0.0128077 1 
10890 1 31.8675 5.55474 -8.57875 0.00153327 1 
10891 1 30.2154 3.29226 -8.04244 0.00321549 1 
10892 1 32.5848 2.9789 -9.61389 0.00157835 1 
10893 1 32.8157 3.52197 -6.79867 0.00889665 1 
10894 1 33.5342 0.949553 -7.84021 0.00396569 1 
10895 1 35.6722 24.9588 -6.87393 0.0298868 1 
10896 1 36.3575 22.3642 -7.83584 0.0119659 1 
10897 1 36.5981 22.9215 -5.09436 0.101258 1 
10898 1 4.12833 22.6092 -6.63047 0.0178309 1 
10899 1 2.42109 20.3442 -6.02415 0.0329403 1 
10900 1 4.7964 20.0322 -7.61712 0.00709731 1 
10901 1 5.00589 20.6074 -4.78751 0.0536407 1 
10902 1 7.38492 20.2652 -6.38651 0.00912299 1 
10903 1 5.70222 18.0124 -5.85527 0.0101583 1 
10904 1 8.08869 17.6819 -7.42578 0.00443834 1 
10905 1 8.29927 18.2356 -4.60996 0.0179258 1 
10906 1 10.6808 17.904 -6.18313 0.00714652 1 
10907 1 9.02791 15.6406 -5.65244 0.0113326 1 
10908 1 11.3898 15.3269 -7.21399 0.00502385 1 
10909 1 11.6203 15.8753 -4.37163 0.0314275 1 
10910 1 13.9611 15.5567 -5.95577 0.0458498 1 
10911 1 12.3322 13.291 -5.41128 0.0177974 1 
10912 1 14.6644 12.977 -7.02541 0.0139086 1 
10913 1 14.8922 13.5063 -4.13771 0.304654 1 
10914 1 17.2259 13.188 -5.85528 0.0301231 1 
10915 1 15.6092 10.9163 -5.26919 0.0549949 1 
10916 1 17.9445 10.5966 -6.91015 0.0119474 1 
10917 1 18.2222 11.0921 -4.10418 0.157482 1 
10918 1 20.5121 10.8047 -5.79417 0.0339549 1 
10919 1 18.8988 8.5156 -5.11002 0.0883746 1 
10920 1 21.2286 8.22374 -6.79445 0.0258501 1 
10921 1 21.4782 8.6886 -4.01592 4.97962 5 
10922 1 23.8057 8.43956 -5.70447 0.129847 1 
10923 1 22.2135 6.12226 -4.97699 4.97427 5 
10924 1 24.5435 5.86861 -6.67736 0.070884 1 
10925 1 24.756 6.38036 -3.99478 6.07308 5 
10926 1 27.1447 6.1572 -5.45782 0.0390574 1 
10927 1 25.4635 3.83429 -4.88964 1.66378 5 
10928 1 27.8331 3.58795 -6.46294 0.0132658 1 
10929 1 28.0245 4.16028 -3.66896 0.166997 1 
10930 1 30.4231 3.84195 -5.25457 0.0283059 1 
10931 1 28.7475 1.55984 -4.74642 0.0377385 1 
10932 1 31.1571 1.26618 -6.29567 0.0109912 1 
10933 1 31.3391 1.83334 -3.53075 0.0311377 1 
10934 1 33.7692 1.49855 -5.01901 0.0306992 1 
10935 1 34.8854 20.6595 -4.35489 0.17791 1 
10936 1 35.0444 21.5688 -1.43129 5.81288 5 
10937 1 2.58747 20.9381 -3.22017 0.355188 1 
10938 1 35.7967 18.6894 -2.5063 2.38634 5 
10939 1 3.30279 18.3422 -4.26669 0.0788981 1 
10940 1 3.42856 18.9359 -1.45993 2.94824 5 
10941 1 5.87748 18.5817 -3.06735 0.0432333 1 
10942 1 4.21589 16.2938 -2.64581 0.365681 1 
10943 1 6.62961 15.9716 -4.13884 0.0123735 1 
10944 1 6.78923 16.5132 -1.39034 0.346549 1 
10945 1 9.22908 16.2111 -2.85597 0.114006 1 
10946 1 7.55071 13.921 -2.4491 0.187769 1 
10947 1 9.98578 13.5946 -3.86756 0.112019 1 
10948 1 10.0039 14.137 -1.06648 5.61715 2 
10949 1 12.5294 13.86 -2.5099 1.09806 5 
10950 1 10.8933 11.5092 -2.04414 4.56868 5 
10951 1 13.2602 11.2242 -3.64855 0.297428 1 
10952 1 13.8178 11.9145 -1.04487 8.55878 5 
10953 1 16.0178 11.3809 -2.50679 0.621088 1 
10954 1 14.1441 9.2335 -1.74376 7.8884 5 
10955 1 16.5673 8.81766 -3.48711 0.153182 1 
10956 1 16.9095 9.10981 -0.714525 8.22464 5 
10957 1 19.3127 8.92414 -2.26431 6.91977 2 
10958 1 17.5136 6.70496 -1.70143 2.43927 5 
10959 1 19.9929 6.42965 -3.24745 6.498 5 
10960 1 21.891 7.45987 -1.30363 8.19318 5 
10961 1 20.4215 4.83962 -0.964077 5.62836 5 
10962 1 22.8477 4.74677 -2.29061 11.4992 5 
10963 1 25.62 4.3985 -2.16759 6.93634 5 
10964 1 24.1063 2.08517 -1.32023 4.92259 5 
10965 1 26.3594 1.815 -3.11142 0.143664 1 
10966 1 28.911 2.11645 -2.03794 0.309024 1 
10967 1 29.8572 0.0580605 -0.402811 8.62936 5 
10968 1 5.12703 14.2492 -1.02979 10.3098 5 
10969 1 8.30043 11.7858 -0.726094 6.43136 2 
12045 1 36.1588 35.5767 -13.3475 0.000187875 1 
12046 1 3.669 35.2586 -14.9486 0.000150196 1 
12047 1 36.8627 32.9956 -14.3504 0.000184298 1 
12049 1 4.6173 33.2288 -13.143 0.000532988 1 
12050 1 6.96518 32.9119 -14.7474 0.00030458 1 
12051 1 5.31867 30.6512 -14.1489 0.000489804 1 
12053 1 7.91102 30.8849 -12.9369 0.00115288 1 
12054 1 10.2551 30.5712 -14.5508 0.000443364 1 
12055 1 8.60638 28.3091 -13.9542 0.000560843 1 
12057 1 11.1924 28.5466 -12.7508 0.000903426 1 
12058 1 13.541 28.2325 -14.3715 0.000348171 1 
12059 1 11.888 25.967 -13.7772 0.000379563 1 
12061 1 14.4749 26.2053 -12.589 0.000843011 1 
12062 1 16.8331 25.889 -14.1975 0.000359543 1 
12063 1 15.1749 23.6207 -13.6096 0.000377844 1 
12065 1 17.7698 23.8566 -12.421 0.000973006 1 
12066 1 20.1297 23.5412 -14.0137 0.000307013 1 
12067 1 18.4686 21.273 -13.4329 0.000449214 1 
12069 1 21.0672 21.5069 -12.2312 0.000658367 1 
12070 1 23.4231 21.1941 -13.8192 0.000233469 1 
12071 1 21.7628 18.9277 -13.2451 0.000327896 1 
12072 1 24.1203 18.6159 -14.839 0.000167452 1 
12073 1 24.3581 19.1617 -12.029 0.000527911 1 
12074 1 26.711 18.85 -13.6231 0.000337382 1 
12075 1 25.0555 16.5847 -13.054 0.00039898 1 
12076 1 27.4099 16.2735 -14.6506 0.000289624 1 
12077 1 27.6453 16.8191 -11.8306 0.000894985 1 
12078 1 29.9945 16.5089 -13.4352 0.000678358 1 
12079 1 28.3452 14.2427 -12.8666 0.000605198 1 
12080 1 30.6961 13.9316 -14.4715 0.0004465 1 
12081 1 30.9258 14.479 -11.6469 0.00191475 1 
12082 1 33.2761 14.1662 -13.269 0.00049292 1 
12083 1 31.6304 11.899 -12.6934 0.000751064 1 
12084 1 33.9839 11.585 -14.3069 0.000260784 1 
12085 1 34.2071 12.1303 -11.4956 0.000964345 1 
12086 1 37.1069 33.5509 -11.5434 0.000600588 1 
12087 1 35.4547 31.2921 -10.9557 0.00108394 1 
12088 1 37.8091 30.9702 -12.5505 0.000630194 1 
12089 1 38.0587 31.5309 -9.74067 0.00242995 1 
12090 1 5.56841 31.2036 -11.3316 0.00195853 1 
12091 1 3.91785 28.946 -10.7576 0.00141512 1 
12092 1 6.26366 28.6253 -12.3481 0.000988493 1 
12093 1 6.52055 29.181 -9.52287 0.00385881 1 
12094 1 8.85376 28.8612 -11.1282 0.00221081 1 
12095 1 7.20658 26.5976 -10.5534 0.00166527 1 
12096 1 9.54381 26.2814 -12.1599 0.000864202 1 
12097 1 9.79211 26.8336 -9.33101 0.00353293 1 
12098 1 12.125 26.5208 -10.9612 0.00190306 1 
12099 1 10.4768 24.2483 -10.372 0.00158782 1 
12100 1 12.8202 23.9355 -11.9934 0.000715012 1 
12101 1 13.053 24.4886 -9.18484 0.00418091 1 
12102 1 15.4068 24.1726 -10.817 0.00215533 1 
12103 1 13.7493 21.8988 -10.2103 0.00139989 1 
12104 1 16.1073 21.5855 -11.8287 0.000854762 1 
12105 1 16.3376 22.1316 -9.04609 0.00654484 1 
12106 1 18.7045 21.8196 -10.6455 0.00252739 1 
12107 1 17.0352 19.5502 -10.0397 0.00135443 1 
12108 1 19.3996 19.239 -11.6506 0.00102111 1 
12109 1 19.629 19.7843 -8.86066 0.00568278 1 
12110 1 21.9983 19.4738 -10.4443 0.00123011 1 
12111 1 20.3238 17.2063 -9.87404 0.00233701 1 
12112 1 22.6941 16.8959 -11.4649 0.000755151 1 
12113 1 22.9219 17.4438 -8.66529 0.00254207 1 
12114 1 25.2901 17.1304 -10.2409 0.00129076 1 
12115 1 23.6245 14.8621 -9.69666 0.00184028 1 
12116 1 25.9905 14.5526 -11.2749 0.000853841 1 
12117 1 26.2237 15.097 -8.46178 0.00280362 1 
12118 1 28.5793 14.7879 -10.0415 0.00189744 1 
12119 1 26.9275 12.5171 -9.5037 0.00188509 1 
12120 1 29.2808 12.21 -11.0879 0.00115131 1 
12121 1 29.5137 12.754 -8.2585 0.00377052 1 
12122 1 31.857 12.4449 -9.86875 0.00300197 1 
12123 1 30.2177 10.1727 -9.3159 0.00188403 1 
12124 1 32.5666 9.86064 -10.9202 0.00108806 1 
12125 1 32.7928 10.3987 -8.10237 0.00348556 1 
12126 1 33.5064 7.81544 -9.1414 0.00184755 1 
12127 1 35.6963 31.8646 -8.1531 0.00461646 1 
12128 1 36.3997 29.2732 -9.17873 0.00311731 1 
12129 1 36.6505 29.8566 -6.40048 0.0116508 1 
12130 1 4.17751 29.5121 -7.95126 0.0054984 1 
12131 1 37.3511 27.2475 -7.42423 0.00864206 1 
12132 1 4.86787 26.9175 -8.97383 0.00310182 1 
12133 1 5.14053 27.4864 -6.17424 0.0139297 1 
12134 1 7.47055 27.1528 -7.72335 0.00729409 1 
12135 1 5.81203 24.8805 -7.18992 0.00921406 1 
12136 1 8.14286 24.5624 -8.76654 0.0023875 1 
12137 1 8.40831 25.103 -5.94493 0.0155567 1 
12138 1 10.7253 24.7939 -7.54605 0.00954885 1 
12139 1 9.06512 22.5179 -6.97657 0.0067742 1 
12140 1 11.4042 22.2078 -8.58234 0.00381146 1 
12141 1 11.651 22.7442 -5.75972 0.0401536 1 
12142 1 13.9766 22.4495 -7.41313 0.0101672 1 
12143 1 12.3313 20.1669 -6.77352 0.0114809 1 
12144 1 14.6774 19.8606 -8.41605 0.00157848 1 
12145 1 14.9049 20.4187 -5.61975 0.019305 1 
12146 1 17.2625 20.098 -7.2347 0.0156266 1 
12147 1 15.5928 17.8246 -6.61321 0.010531 1 
12148 1 17.9514 17.5161 -8.26012 0.00317758 1 
12149 1 18.159 18.0627 -5.4678 0.0137881 1 
12150 1 20.5396 17.7554 -7.08699 0.00949515 1 
12151 1 18.8623 15.4704 -6.49764 0.0137975 1 
12152 1 21.2437 15.17 -8.11836 0.00788573 1 
12153 1 21.4489 15.7176 -5.36228 0.034279 1 
12154 1 23.8474 15.4091 -6.90896 0.00608928 1 
12155 1 22.1682 13.1182 -6.39629 0.0290001 1 
12156 1 24.5582 12.8206 -7.94621 0.00475747 1 
12157 1 24.7753 13.3613 -5.17716 0.0163917 1 
12158 1 27.1597 13.058 -6.69008 0.00682446 1 
12159 1 25.4861 10.7673 -6.21054 0.0124279 1 
12160 1 27.8645 10.4774 -7.73834 0.00441649 1 
12161 1 28.0982 11.0201 -4.92617 0.0302022 1 
12162 1 30.4499 10.7096 -6.49195 0.00659833 1 
12163 1 28.8048 8.44271 -5.96705 0.0185196 1 
12164 1 31.156 8.13241 -7.53609 0.00371619 1 
12165 1 31.3885 8.66141 -4.70018 0.0393258 1 
12166 1 33.7337 8.34244 -6.32468 0.00722328 1 
12167 1 32.0934 6.09353 -5.76461 0.0141567 1 
12168 1 34.4547 5.7678 -7.34616 0.00620933 1 
12169 1 34.6798 6.28748 -4.51574 0.0337093 1 
12170 1 34.9774 27.5757 -5.8711 0.0342078 1 
12171 1 35.2666 28.199 -3.18225 0.152783 1 
12172 1 37.6227 27.8537 -4.68089 0.0232856 1 
12173 1 35.9513 25.5533 -4.19127 0.191094 1 
12174 1 3.46205 25.2157 -5.67707 0.0384272 1 
12175 1 3.70758 25.8649 -2.96327 0.0711152 1 
12176 1 6.07338 25.4415 -4.39548 0.0688924 1 
12177 1 4.33318 23.1899 -3.86588 0.131163 1 
12178 1 6.72621 22.8427 -5.37213 0.0281229 1 
12179 1 6.99049 23.4186 -2.58087 5.74551 5 
12180 1 9.35246 23.0207 -4.17549 0.123629 1 
12181 1 7.60735 20.8181 -3.54522 0.148346 1 
12182 1 9.97659 20.4685 -5.17101 0.021615 1 
12183 1 10.2407 20.9357 -2.31522 0.94166 1 
12184 1 12.553 20.7056 -3.95131 0.287249 1 
12185 1 10.9021 18.4445 -3.34488 0.113811 1 
12186 1 13.26 18.1388 -4.92525 0.0950195 1 
12187 1 13.4336 18.8382 -1.98631 1.00508 1 
12188 1 15.797 18.4228 -3.80165 0.14222 1 
12189 1 14.1702 16.1503 -3.03251 0.722593 1 
12190 1 16.5033 15.7845 -4.81285 0.0592977 1 
12191 1 16.7845 16.4185 -2.02972 2.14001 5 
12192 1 19.083 16.0056 -3.7398 0.13213 1 
12193 1 17.5474 13.7223 -3.04693 0.535489 5 
12194 1 19.8017 13.395 -4.76131 0.0491231 1 
12195 1 20.0607 13.8237 -1.96822 7.25672 5 
12196 1 22.3574 13.6622 -3.68747 0.204765 1 
12197 1 20.7758 11.2542 -3.00621 5.58206 5 
12198 1 23.0817 11.0482 -4.70808 0.156668 1 
12199 1 23.2829 11.6226 -2.06701 5.59847 5 
12200 1 25.7212 11.3264 -3.47319 0.151095 1 
12201 1 24.0166 9.02305 -3.07265 5.38269 5 
12202 1 26.4239 8.72569 -4.49138 0.0685558 1 
12203 1 26.5388 9.21577 -1.76664 6.41301 5 
12204 1 29.0001 8.97173 -3.15412 3.97118 5 
12205 1 27.2818 6.71616 -2.65394 2.55182 5 
12206 1 29.7074 6.43156 -4.15639 1.11109 5 
12207 1 29.2417 7.5464 -0.77197 13.7433 5 
12208 1 32.2582 6.64786 -2.92116 1.07187 5 
12209 1 30.5164 4.43967 -2.43849 0.921244 5 
12210 1 33.0006 4.07676 -3.97788 0.0351604 1 
12211 1 33.0739 4.66803 -1.16184 0.298166 1 
12212 1 33.924 2.07676 -2.22692 0.1262 1 
12213 1 36.2119 26.2596 -1.51543 6.18516 5 
12214 1 36.7559 23.6301 -2.39331 1.12964 5 
12215 1 4.64902 23.9681 -1.23042 5.19139 5 
12216 1 2.7723 21.8126 -0.574544 6.24777 5 