ITEM: TIMESTEP
0
ITEM: NUMBER OF ATOMS
11612
ITEM: BOX BOUNDS xy xz yz pp pp ss
0.0000000000000000e+00 1.4532108845600001e+02 8.7192653074000006e+01
0.0000000000000000e+00 1.1154055876699999e+02 0.0000000000000000e+00
-1.0595996762375279e+02 1.1198598355494116e+02 0.0000000000000000e+00
ITEM: ATOMS id type x y z c_csym c_cna 
55433 2 57.9259 42.8531 2.2276 7.19696 2 
53168 2 52.5593 51.2209 2.66394 5.63527 5 
55432 2 57.8768 45.6494 2.66012 7.0237 2 
10523 1 2.98824 0.215346 -13.5649 0.000344266 1 
10524 1 58.7158 1.72249 -13.1593 0.000588637 1 
53051 2 51.3826 36.5554 2.66528 0.433802 5 
52935 2 52.6763 20.7882 2.82205 1.41976 5 
12332 1 8.06211 2.86449 -13.567 0.000260105 1 
12333 1 10.4557 1.35592 -13.9844 0.000172131 1 
12339 1 59.7115 9.1175 -14.5049 0.000134908 1 
12340 1 62.1092 7.60898 -14.9175 7.78608e-05 1 
12341 1 59.5679 6.2844 -14.9144 0.000154552 1 
12343 1 61.406 5.88011 -12.7492 0.000366286 1 
12344 1 5.67059 4.37272 -13.1554 0.000262269 1 
12345 1 3.13253 3.04794 -13.158 0.00034723 1 
12346 1 5.52692 1.54022 -13.5621 0.000218217 1 
12347 1 4.96614 2.64605 -10.9805 0.00112668 1 
12348 1 7.35279 1.13832 -11.3839 0.000902872 1 
12349 1 59.007 7.38781 -12.3437 0.000604655 1 
12350 1 58.862 4.55485 -12.7522 0.000672456 1 
12351 1 58.3013 5.65702 -10.1914 0.00260232 1 
12352 1 60.7058 4.15118 -10.5848 0.00195709 1 
12353 1 58.1528 2.8249 -10.5984 0.00248765 1 
12354 1 2.42795 1.31942 -10.9961 0.00123546 1 
12355 1 60.0022 2.42318 -8.43603 0.00496173 1 
12356 1 4.26296 0.920118 -8.80956 0.00276148 1 
12357 1 1.16523 0.694745 -6.30527 0.0146267 1 
14221 1 17.9357 2.49316 -14.4334 6.70556e-05 1 
14222 1 20.3303 0.98566 -14.85 8.97962e-05 1 
14255 1 13.1417 5.51159 -13.6027 0.000126465 1 
14256 1 15.5397 4.00197 -14.0194 9.95592e-05 1 
14257 1 12.9968 2.6788 -14.0037 0.000105577 1 
14258 1 15.3947 1.1701 -14.4203 7.71771e-05 1 
14259 1 14.8306 2.27432 -11.8462 0.000482858 1 
14260 1 17.2275 0.764791 -12.2556 0.000289061 1 
14278 1 64.7909 11.7654 -14.5142 5.73089e-05 1 
14279 1 9.05756 10.2564 -14.9335 5.30035e-05 1 
14280 1 64.6476 8.93295 -14.9227 6.01134e-05 1 
14282 1 8.3497 8.52884 -12.7569 0.000258179 1 
14283 1 10.744 7.02084 -13.1803 0.000188885 1 
14284 1 8.20574 5.69693 -13.1628 0.000293 1 
14285 1 10.5995 4.18816 -13.5833 0.000187396 1 
14286 1 10.0319 5.29585 -11.0009 0.00119989 1 
14287 1 12.4298 3.78556 -11.4295 0.000613674 1 
14288 1 9.88657 2.46312 -11.4008 0.000835585 1 
14289 1 12.2835 0.952922 -11.8252 0.000397353 1 
14290 1 11.7109 2.06586 -9.25107 0.00196216 1 
14291 1 14.1169 0.549815 -9.67417 0.00174126 1 
14298 1 59.9976 14.7826 -13.6778 0.000105135 1 
14299 1 62.3953 13.2743 -14.0965 6.75122e-05 1 
14300 1 59.8547 11.9506 -14.0927 0.000115672 1 
14301 1 62.2523 10.4419 -14.5081 6.50574e-05 1 
14302 1 61.6925 11.5467 -11.9294 0.000223935 1 
14303 1 64.0862 10.0378 -12.3407 0.000198997 1 
14304 1 61.5495 8.71313 -12.3407 0.000272976 1 
14305 1 5.81452 7.20469 -12.748 0.000265115 1 
14306 1 63.3845 8.30915 -10.1651 0.000844614 1 
14307 1 7.6425 6.8012 -10.573 0.00131349 1 
14308 1 5.11324 5.47657 -10.5697 0.00136307 1 
14309 1 7.49741 3.97152 -10.9796 0.00138891 1 
14310 1 6.94024 5.07519 -8.37226 0.00747658 1 
14311 1 9.31546 3.57806 -8.81093 0.00813574 1 
14312 1 6.78689 2.25008 -8.79081 0.00805087 1 
14313 1 9.1677 0.74252 -9.20949 0.00334307 1 
14314 1 8.58778 1.87053 -6.61555 0.0753326 1 
14315 1 10.981 0.354867 -7.07015 0.00548368 1 
14316 1 59.2943 13.0547 -11.5163 0.000402579 1 
14317 1 59.1508 10.2215 -11.9322 0.00048206 1 
14318 1 58.5919 11.3241 -9.3645 0.00180344 1 
14319 1 60.9928 9.81758 -9.76738 0.000909363 1 
14320 1 58.4473 8.49036 -9.78076 0.00222275 1 
14321 1 60.8507 6.98332 -10.1768 0.00141527 1 
14322 1 60.2987 8.08549 -7.61484 0.00400784 1 
14323 1 62.6929 6.57974 -7.98342 0.00436043 1 
14324 1 60.1538 5.25275 -8.02517 0.00491435 1 
14325 1 4.42132 3.75002 -8.38723 0.00861562 1 
14326 1 3.87542 4.85362 -5.81308 0.00987765 1 
14327 1 6.26025 3.35497 -6.14244 0.0589888 1 
14328 1 3.71715 2.03107 -6.22826 0.0107084 1 
14329 1 6.07448 0.532286 -6.59741 0.0169829 1 
14330 1 5.5276 1.66194 -3.96026 0.0717113 1 
14331 1 7.84773 0.170532 -4.40527 0.219462 1 
14332 1 59.5982 6.35006 -5.48666 0.0111237 1 
14333 1 59.4437 3.52184 -5.89742 0.0130961 1 
14334 1 58.8674 4.61206 -3.38541 0.0690799 1 
14335 1 3.14636 3.14217 -3.66566 0.0512665 1 
14336 1 58.7114 1.78958 -3.79334 0.0480297 1 
14337 1 2.9979 0.317562 -4.08331 0.0276856 1 
14338 1 2.3505 1.44177 -1.52218 7.02516 2 
14339 1 58.038 2.85894 -1.30244 6.85115 2 
55387 2 57.992 37.2004 1.40477 7.14334 2 
16240 1 23.0138 5.14139 -14.4643 0.000165937 1 
16241 1 25.4121 3.634 -14.8903 0.000156344 1 
16242 1 22.8694 2.30948 -14.8687 0.000152096 1 
16244 1 24.6975 1.90424 -12.7162 0.000545219 1 
16245 1 27.1013 0.397359 -13.146 0.000536477 1 
16290 1 18.2267 8.15859 -13.6244 6.91072e-05 1 
16291 1 20.6197 6.6496 -14.0415 0.000109827 1 
16292 1 18.0808 5.32558 -14.0304 6.78136e-05 1 
16293 1 20.4745 3.81697 -14.4466 0.000101253 1 
16294 1 19.9112 4.92026 -11.8639 0.000350531 1 
16295 1 22.3013 3.41143 -12.2849 0.000584005 1 
16296 1 19.7656 2.08764 -12.2662 0.000313402 1 
16297 1 22.157 0.580527 -12.6867 0.000487584 1 
16298 1 21.5893 1.68203 -10.095 0.00187012 1 
16299 1 23.9793 0.176024 -10.5319 0.00209516 1 
16329 1 11.7447 14.4105 -14.542 4.52641e-05 1 
16330 1 14.1425 12.9026 -14.9616 5.02298e-05 1 
16331 1 11.5987 11.5795 -14.9482 2.98248e-05 1 
16333 1 13.4338 11.1758 -12.7918 0.00013853 1 
16334 1 15.8317 9.66763 -13.2097 0.000123661 1 
16335 1 13.2872 8.34449 -13.1984 0.000128861 1 
16336 1 15.6853 6.83506 -13.6162 0.000113208 1 
16337 1 15.1244 7.94198 -11.0439 0.000664151 1 
16338 1 17.5207 6.43094 -11.4533 0.000354814 1 
16339 1 14.9777 5.10798 -11.4477 0.000590298 1 
16340 1 17.374 3.59695 -11.8562 0.000344495 1 
16341 1 16.8201 4.70394 -9.28527 0.00223169 1 
16342 1 19.2062 3.1913 -9.68163 0.00148864 1 
16343 1 16.6705 1.86918 -9.68291 0.0020202 1 
16344 1 19.0593 0.359187 -10.0807 0.0012056 1 
16345 1 18.5147 1.46283 -7.49374 0.00765832 1 
16364 1 65.0779 17.4267 -13.6959 8.45223e-05 1 
16365 1 67.4752 15.9187 -14.1197 5.90038e-05 1 
16366 1 64.9345 14.5967 -14.1047 7.0564e-05 1 
16367 1 67.3304 13.088 -14.5263 4.76625e-05 1 
16368 1 66.7679 14.1927 -11.9433 0.000227835 1 
16369 1 11.0354 12.6841 -12.3688 0.000134977 1 
16370 1 66.6226 11.3615 -12.3506 0.000208375 1 
16371 1 10.889 9.85261 -12.7745 0.000144892 1 
16372 1 10.3228 10.9595 -10.1931 0.000661927 1 
16373 1 12.7218 9.45051 -10.6233 0.000613435 1 
16374 1 10.1765 8.12548 -10.5965 0.000977368 1 
16375 1 12.5762 6.61911 -11.0293 0.000737232 1 
16376 1 12.0038 7.72228 -8.45519 0.00433073 1 
16377 1 14.4175 6.21751 -8.88656 0.00357603 1 
16378 1 11.8606 4.89831 -8.85901 0.005142 1 
16379 1 14.2683 3.38277 -9.28398 0.00273489 1 
16380 1 13.7064 4.49629 -6.74106 0.0199377 1 
16381 1 16.122 2.97993 -7.13104 0.00900171 1 
16382 1 13.5472 1.66673 -7.1232 0.0076256 1 
16383 1 15.9632 0.146157 -7.51933 0.00684201 1 
16384 1 15.4093 1.26871 -5.00011 0.028607 1 
16387 1 58.5876 23.6738 -14.5954 8.61952e-05 1 
16391 1 60.282 20.4404 -12.8484 0.000105161 1 
16392 1 62.6806 18.9337 -13.2724 6.90629e-05 1 
16393 1 60.1399 17.6127 -13.262 0.000107477 1 
16394 1 62.5382 16.1049 -13.6838 7.93399e-05 1 
16395 1 61.9785 17.2075 -11.0985 0.000300461 1 
16396 1 64.3737 15.7006 -11.5191 0.000322516 1 
16397 1 61.8357 14.3787 -11.5143 0.000259587 1 
16398 1 64.2298 12.8706 -11.9307 0.000223126 1 
16399 1 63.6713 13.9767 -9.34216 0.00105839 1 
16400 1 66.0596 12.4691 -9.76359 0.000823105 1 
16401 1 63.5271 11.1441 -9.75711 0.000647842 1 
16402 1 7.78586 9.63468 -10.1708 0.000923847 1 
16403 1 65.3515 10.7454 -7.5802 0.00310121 1 
16404 1 9.60546 9.23299 -8.01238 0.00435255 1 
16405 1 7.08081 7.90642 -7.9788 0.00439503 1 
16406 1 9.46155 6.39762 -8.40169 0.00689805 1 
16407 1 8.88743 7.5059 -5.80118 0.0301165 1 
16408 1 11.276 5.98837 -6.26322 0.0416942 1 
16409 1 8.75548 4.67584 -6.15882 0.048302 1 
16410 1 11.134 3.19818 -6.67781 0.0467962 1 
16411 1 10.5679 4.26995 -3.94608 0.533288 5 
16412 1 12.975 2.82365 -4.58987 0.140371 1 
16413 1 10.3976 1.50363 -4.52282 1.00976 5 
16414 1 12.2638 1.22025 -2.52153 5.72957 5 
16415 1 59.5785 18.7146 -10.6785 0.000476532 1 
16416 1 59.4373 15.8859 -11.0972 0.000425383 1 
16417 1 58.8764 16.9875 -8.52119 0.00185395 1 
16418 1 61.2807 15.482 -8.92962 0.0012431 1 
16419 1 58.7355 14.1567 -8.94353 0.00175742 1 
16420 1 61.1359 12.6516 -9.35134 0.000799643 1 
16421 1 60.5865 13.755 -6.77494 0.00351428 1 
16422 1 62.9727 12.2525 -7.16866 0.00266615 1 
16423 1 60.442 10.921 -7.19844 0.00336201 1 
16424 1 62.8298 9.41571 -7.58268 0.00240583 1 
16425 1 62.2877 10.5246 -4.99464 0.00961884 1 
16426 1 64.6497 9.01986 -5.38118 0.0133525 1 
16427 1 62.1459 7.68406 -5.40802 0.00907122 1 
16428 1 6.39832 6.17853 -5.75424 0.0202914 1 
16429 1 5.85217 7.29617 -3.15279 0.0724186 1 
16430 1 8.2244 5.78005 -3.48061 0.146912 1 
16431 1 5.70702 4.4709 -3.54287 0.0710011 1 
16432 1 8.10274 2.94985 -3.81854 0.637936 5 
16433 1 7.49441 4.1755 -1.15426 5.8052 5 
16434 1 9.97154 2.48242 -1.09497 12.038 5 
16435 1 7.31287 1.38164 -1.5696 6.9437 2 
16437 1 58.1729 15.2541 -6.38372 0.00758957 1 
16438 1 58.0335 12.4214 -6.80738 0.007373 1 
16439 1 59.8954 12.0211 -4.64278 0.00863143 1 
16440 1 59.7492 9.18468 -5.06846 0.00912539 1 
16441 1 59.2027 10.275 -2.5421 0.0252504 1 
16442 1 61.6045 8.79318 -2.84789 0.0413201 1 
16443 1 59.041 7.43665 -2.97176 0.0610162 1 
16444 1 61.4429 5.95819 -3.25796 0.069276 1 
16445 1 60.7835 7.08777 -0.714147 5.68038 5 
16446 1 5.05078 5.64751 -0.932515 5.72392 5 
16447 1 60.574 4.26475 -1.10383 6.39557 2 
16448 1 4.88113 2.83696 -1.32139 6.70569 2 
16449 1 58.4366 8.53395 -0.470938 0.794552 5 
16450 1 58.1831 5.68963 -0.884214 5.9572 5 
18264 1 34.5911 1.54022 -13.5621 0.000218217 1 
18333 1 28.1029 7.79224 -14.4985 0.000186737 1 
18334 1 30.5036 6.2844 -14.9144 0.000154552 1 
18335 1 27.9583 4.95922 -14.9069 0.000193152 1 
18337 1 29.7977 4.55485 -12.7522 0.000672456 1 
18338 1 32.1967 3.04794 -13.158 0.00034723 1 
18339 1 29.6515 1.72249 -13.1593 0.000588637 1 
18340 1 32.0525 0.215346 -13.5649 0.000344266 1 
18341 1 31.4922 1.31942 -10.9961 0.00123546 1 
18398 1 23.3052 10.8072 -13.6466 0.000163081 1 
18399 1 25.7022 9.29978 -14.0747 0.000154722 1 
18400 1 23.1592 7.9742 -14.0573 0.000167513 1 
18401 1 25.557 6.46655 -14.4841 0.000161587 1 
18402 1 24.9893 7.56875 -11.9075 0.000591895 1 
18403 1 27.3928 6.06169 -12.3373 0.000701574 1 
18404 1 24.8428 4.73594 -12.3137 0.000599446 1 
18405 1 27.2466 3.22906 -12.7431 0.000657414 1 
18406 1 26.6761 4.32994 -10.1792 0.00244484 1 
18407 1 29.0886 2.8249 -10.5984 0.00248765 1 
18408 1 26.529 1.49846 -10.5793 0.00206433 1 
18409 1 28.3735 1.09325 -8.45523 0.00935277 1 
18451 1 16.8336 17.058 -14.5609 0.000151061 1 
18452 1 19.2272 15.5511 -14.9744 7.2504e-05 1 
18453 1 16.6861 14.2263 -14.9701 6.9013e-05 1 
18455 1 18.522 13.8217 -12.8043 0.000154243 1 
18456 1 20.9126 12.3147 -13.2215 0.000160032 1 
18457 1 18.3737 10.9908 -13.2152 8.34411e-05 1 
18458 1 20.7658 9.48243 -13.6332 0.000122798 1 
18459 1 20.2048 10.5858 -11.0472 0.000434267 1 
18460 1 22.5938 9.07662 -11.4732 0.000591996 1 
18461 1 20.0575 7.75361 -11.4579 0.000385434 1 
18462 1 22.4469 6.24398 -11.8812 0.000627479 1 
18463 1 21.881 7.3468 -9.29038 0.002268 1 
18464 1 24.2701 5.83745 -9.73392 0.00264537 1 
18465 1 21.7343 4.51422 -9.69496 0.0021974 1 
18466 1 24.1235 3.00571 -10.1342 0.00250514 1 
18467 1 23.5445 4.10849 -7.54002 0.0115397 1 
18468 1 25.9485 2.59724 -8.01681 0.00821352 1 
18469 1 23.4017 1.27849 -7.93243 0.00943651 1 
18470 1 25.2088 0.872817 -5.82394 0.0382397 1 
18501 1 70.1646 20.0737 -13.7327 0.000261505 1 
18502 1 72.5651 18.5656 -14.1489 0.000245333 1 
18503 1 70.0193 17.2414 -14.1371 0.000111632 1 
18504 1 14.2896 15.7336 -14.5549 0.000110742 1 
18505 1 13.7319 16.8356 -11.983 0.000452621 1 
18506 1 16.1293 15.3285 -12.3936 0.000309556 1 
18507 1 13.5824 14.006 -12.3859 0.000210002 1 
18508 1 15.9797 12.4985 -12.8011 0.000165086 1 
18509 1 15.4233 13.6026 -10.2258 0.000860252 1 
18510 1 17.8162 12.0949 -10.6329 0.000392881 1 
18511 1 15.2722 10.7738 -10.6353 0.000690474 1 
18512 1 17.6677 9.26415 -11.0453 0.000343151 1 
18513 1 17.1136 10.3717 -8.46696 0.00204357 1 
18514 1 19.4993 8.85871 -8.86907 0.00167585 1 
18515 1 16.9666 7.53942 -8.8799 0.00209892 1 
18516 1 19.3527 6.0257 -9.27847 0.00162745 1 
18517 1 18.8078 7.13399 -6.68585 0.00749503 1 
18518 1 21.1714 5.6192 -7.09118 0.011199 1 
18519 1 18.6639 4.29823 -7.09304 0.00813012 1 
18520 1 21.0266 2.78538 -7.49231 0.00999733 1 
18521 1 20.5004 3.89149 -4.85325 0.0505922 1 
18522 1 22.8229 2.38313 -5.30653 0.080484 1 
18523 1 20.3558 1.05459 -5.25738 0.0455007 1 
18524 1 22.1855 0.633743 -2.95072 0.398321 1 
18539 1 63.6702 26.3228 -14.6242 5.71729e-05 1 
18543 1 65.3637 23.0878 -12.8806 0.000197446 1 
18544 1 67.763 21.5817 -13.3092 0.000228832 1 
18545 1 65.2208 20.2563 -13.2889 0.000116052 1 
18546 1 67.6196 18.7492 -13.7147 0.000114202 1 
18547 1 67.0572 19.8501 -11.1374 0.000502329 1 
18548 1 69.4586 18.3431 -11.5649 0.00043739 1 
18549 1 66.9131 17.0213 -11.5381 0.000302143 1 
18550 1 69.3116 15.5136 -11.9649 0.000194354 1 
18551 1 68.7499 16.6161 -9.38761 0.00107575 1 
18552 1 13.0236 15.1098 -9.81392 0.000916483 1 
18553 1 68.5999 13.791 -9.78725 0.000732025 1 
18554 1 12.8711 12.2821 -10.2176 0.000636618 1 
18555 1 12.3064 13.3935 -7.64585 0.00258273 1 
18556 1 14.7124 11.8837 -8.0675 0.00291401 1 
18557 1 12.1526 10.5616 -8.05285 0.00248083 1 
18558 1 14.5629 9.05207 -8.47976 0.00359444 1 
18559 1 13.9936 10.171 -5.92894 0.0136602 1 
18560 1 16.4145 8.65199 -6.31911 0.00808601 1 
18561 1 13.8517 7.32525 -6.34544 0.0201724 1 
18562 1 16.273 5.81593 -6.73109 0.00860603 1 
18563 1 15.7211 6.92787 -4.20547 0.0256185 1 
18564 1 18.1312 5.41374 -4.52146 0.01161 1 
18565 1 15.5803 4.09771 -4.60942 0.0376348 1 
18566 1 17.9825 2.57689 -4.92964 0.0127165 1 
18567 1 17.432 3.70327 -2.38866 0.028372 1 
18568 1 19.8177 2.18223 -2.66425 0.026311 1 
18569 1 17.2658 0.869798 -2.80018 0.0434958 1 
18570 1 19.2078 0.485771 -0.501532 6.52793 2 
18573 1 58.8735 29.3308 -13.7826 0.000320633 1 
18574 1 61.2729 27.8263 -14.2024 0.000135859 1 
18575 1 58.7308 26.5012 -14.1881 0.000179098 1 
18576 1 61.1296 24.9965 -14.6119 6.71498e-05 1 
18577 1 60.5717 26.0929 -12.0315 0.000415556 1 
18578 1 62.9674 24.591 -12.4533 0.00015756 1 
18579 1 60.4258 23.2662 -12.4385 0.000161386 1 
18580 1 62.8234 21.7619 -12.8632 7.32248e-05 1 
18581 1 62.2647 22.8591 -10.2786 0.000333066 1 
18582 1 64.6594 21.3562 -10.7063 0.000521776 1 
18583 1 62.1205 20.0338 -10.6868 0.000270988 1 
18584 1 64.5167 18.528 -11.1105 0.000372618 1 
18585 1 63.9578 19.6274 -8.51981 0.00169796 1 
18586 1 66.3514 18.1214 -8.95094 0.00146015 1 
18587 1 63.8162 16.803 -8.92612 0.0013483 1 
18588 1 66.2065 15.298 -9.35379 0.00124408 1 
18589 1 65.6513 16.3991 -6.74594 0.00615065 1 
18590 1 68.0357 14.9022 -7.19479 0.00643665 1 
18591 1 65.4993 13.5802 -7.16533 0.00563452 1 
18592 1 9.75491 12.0738 -7.60679 0.00255332 1 
18593 1 67.3175 13.1993 -5.00346 0.0387384 1 
18594 1 11.5778 11.6882 -5.48057 0.00727403 1 
18595 1 9.03196 10.3552 -5.42582 0.0150566 1 
18596 1 11.4255 8.83186 -5.89793 0.0177968 1 
18597 1 10.8407 9.9654 -3.3542 0.0789906 1 
18598 1 13.281 8.42736 -3.84553 0.0851254 1 
18599 1 10.6896 7.10839 -3.704 0.226189 1 
18600 1 13.1364 5.58066 -4.21944 0.169846 1 
18601 1 12.5975 6.64753 -1.78563 6.409 5 
18602 1 15.0235 5.20366 -2.12552 0.221468 1 
18603 1 12.4111 3.88793 -1.88451 12.2579 5 
18604 1 14.8688 2.40281 -2.52065 0.223162 1 
18605 1 14.3984 3.47496 -0.0418742 11.2281 5 
18606 1 16.822 1.9801 -0.257955 6.59362 2 
18607 1 14.2243 0.729198 -0.421509 8.08019 5 
18608 1 58.172 27.5964 -11.6118 0.00114634 1 
18609 1 58.0264 24.7705 -12.0117 0.000678283 1 
18610 1 59.8695 24.3597 -9.85737 0.00126636 1 
18611 1 59.7212 21.5389 -10.2637 0.000636726 1 
18612 1 59.1621 22.633 -7.68299 0.00497495 1 
18613 1 61.5646 21.1306 -8.09788 0.00131271 1 
18614 1 59.0163 19.8154 -8.09706 0.00253762 1 
18615 1 61.4212 18.3088 -8.5119 0.00108523 1 
18616 1 60.8657 19.4108 -5.92624 0.00488563 1 
18617 1 63.2638 17.9046 -6.3273 0.00397671 1 
18618 1 60.7264 16.5847 -6.35173 0.00316488 1 
18619 1 63.125 15.081 -6.73985 0.00560926 1 
18620 1 62.5764 16.1875 -4.1476 0.00742773 1 
18621 1 64.9705 14.6845 -4.52078 0.0322582 1 
18622 1 62.4371 13.3621 -4.56844 0.0106845 1 
18623 1 64.7932 11.8639 -4.97589 0.0193244 1 
18624 1 64.2852 12.988 -2.31836 0.0595154 1 
18625 1 66.59 11.496 -2.82141 0.190226 1 
18626 1 64.1253 10.145 -2.75043 0.0652134 1 
18627 1 8.31706 8.63858 -3.19664 0.111586 1 
18628 1 7.84455 9.82067 -0.451058 1.29655 5 
18629 1 10.1426 8.28928 -1.13045 8.5185 5 
18630 1 7.65452 6.99731 -0.823707 5.40878 5 
18631 1 10.1 5.40521 -1.17743 9.42998 5 
18632 1 10.491 1.33869 1.48856 5.18324 5 
18633 1 58.4456 20.9184 -5.52221 0.0151988 1 
18634 1 58.3085 18.0881 -5.95894 0.00862576 1 
18635 1 60.1603 17.6918 -3.79141 0.00935868 1 
18636 1 60.0317 14.8563 -4.2163 0.0089409 1 
18637 1 59.4433 15.9599 -1.68814 0.0171077 1 
18638 1 61.8833 14.4755 -1.9921 0.017281 1 
18639 1 59.3344 13.1173 -2.1136 0.0158373 1 
18640 1 61.7542 11.6403 -2.42143 0.0145053 1 
18641 1 61.188 12.7662 0.131733 0.0583485 1 
18642 1 63.593 11.3039 -0.149171 0.141417 1 
18643 1 61.0264 9.93001 -0.306803 0.292164 1 
18644 1 63.3906 8.47449 -0.556946 0.972526 5 
18645 1 58.6608 11.3778 -0.0359108 0.071941 1 
52910 2 51.6512 6.13531 2.87415 0.997449 5 
20277 1 44.4589 1.1701 -14.4203 7.71771e-05 1 
20372 1 39.6638 4.18816 -13.5833 0.000187396 1 
20373 1 42.061 2.6788 -14.0037 0.000105577 1 
20374 1 39.52 1.35592 -13.9844 0.000172131 1 
20375 1 41.3477 0.952922 -11.8252 0.000397353 1 
20456 1 33.1881 10.4419 -14.5081 6.50574e-05 1 
20457 1 35.5833 8.93295 -14.9227 6.01134e-05 1 
20458 1 33.045 7.60898 -14.9175 7.78608e-05 1 
20460 1 34.8787 7.20469 -12.748 0.000265115 1 
20461 1 37.27 5.69693 -13.1628 0.000293 1 
20462 1 34.7348 4.37272 -13.1554 0.000262269 1 
20463 1 37.1263 2.86449 -13.567 0.000260105 1 
20464 1 36.5616 3.97152 -10.9796 0.00138891 1 
20465 1 38.9508 2.46312 -11.4008 0.000835585 1 
20466 1 36.417 1.13832 -11.3839 0.000902872 1 
20467 1 38.2319 0.74252 -9.20949 0.00334307 1 
20536 1 28.3907 13.4587 -13.6719 0.000137511 1 
20537 1 30.7905 11.9506 -14.0927 0.000115672 1 
20538 1 28.2471 10.6257 -14.087 0.000164587 1 
20539 1 30.6473 9.1175 -14.5049 0.000134908 1 
20540 1 30.0866 10.2215 -11.9322 0.00048206 1 
20541 1 32.4853 8.71313 -12.3407 0.000272976 1 
20542 1 29.9428 7.38781 -12.3437 0.000604655 1 
20543 1 32.3418 5.88011 -12.7492 0.000366286 1 
20544 1 31.7865 6.98332 -10.1768 0.00141527 1 
20545 1 34.1775 5.47657 -10.5697 0.00136307 1 
20546 1 31.6416 4.15118 -10.5848 0.00195709 1 
20547 1 34.0304 2.64605 -10.9805 0.00112668 1 
20548 1 33.4855 3.75002 -8.38723 0.00861561 1 
20549 1 35.8511 2.25008 -8.79081 0.00805087 1 
20550 1 33.3272 0.920118 -8.80956 0.00276148 1 
20551 1 35.1387 0.532286 -6.59741 0.0169829 1 
20605 1 21.9105 19.7097 -14.5592 0.000166376 1 
20606 1 24.3025 18.2027 -14.9829 0.000117814 1 
20607 1 21.7655 16.8771 -14.9775 9.40341e-05 1 
20609 1 23.5964 16.4735 -12.8132 0.00025881 1 
20610 1 25.9914 14.9663 -13.2439 0.000139509 1 
20611 1 23.4512 13.6402 -13.232 0.000177721 1 
20612 1 25.8472 12.1332 -13.6612 0.000138974 1 
20613 1 25.282 13.2347 -11.0793 0.000498493 1 
20614 1 27.6836 11.7286 -11.5126 0.000528634 1 
20615 1 25.136 10.4017 -11.496 0.000525216 1 
20616 1 27.5386 8.89513 -11.9274 0.000637077 1 
20617 1 26.9726 9.99548 -9.35985 0.00210988 1 
20618 1 29.3831 8.49036 -9.78076 0.00222275 1 
20619 1 26.8247 7.16278 -9.77332 0.00246728 1 
20620 1 29.2371 5.65702 -10.1914 0.00260232 1 
20621 1 28.6747 6.75631 -7.64675 0.00960054 1 
20622 1 31.0895 5.25275 -8.02517 0.00491435 1 
20623 1 28.5234 3.9241 -8.05455 0.0100863 1 
20624 1 30.938 2.42318 -8.43603 0.00496173 1 
20625 1 30.3795 3.52184 -5.89742 0.0130961 1 
20626 1 32.7814 2.03107 -6.22826 0.0107084 1 
20627 1 30.2295 0.694745 -6.30527 0.0146267 1 
20628 1 32.0621 0.317562 -4.08331 0.0276856 1 
20671 1 75.2554 22.7254 -13.7364 0.000384127 1 
20672 1 19.52 21.217 -14.1443 0.000216564 1 
20673 1 16.9808 19.8912 -14.1504 0.00026688 1 
20674 1 19.374 18.3838 -14.5607 0.000129907 1 
20675 1 18.8205 19.4867 -11.9789 0.000527106 1 
20676 1 21.2072 17.98 -12.389 0.000362192 1 
20677 1 18.6712 16.653 -12.3929 0.000308826 1 
20678 1 21.06 15.1468 -12.8071 0.000232564 1 
20679 1 20.503 16.2471 -10.217 0.00100702 1 
20680 1 22.8883 14.7409 -10.6429 0.000625963 1 
20681 1 20.3533 13.4164 -10.6327 0.000651224 1 
20682 1 22.7413 11.9086 -11.0604 0.000544268 1 
20683 1 22.1778 13.005 -8.46564 0.0016428 1 
20684 1 24.5677 11.4995 -8.91215 0.00209491 1 
20685 1 22.0294 10.177 -8.88048 0.00201931 1 
20686 1 24.419 8.669 -9.32655 0.00235235 1 
20687 1 23.8462 9.76384 -6.73086 0.0103552 1 
20688 1 26.2513 8.25903 -7.21309 0.0081701 1 
20689 1 23.6934 6.93809 -7.14037 0.0113384 1 
20690 1 26.0984 5.42854 -7.62188 0.0090392 1 
20691 1 25.5124 6.52034 -5.06163 0.0335722 1 
20692 1 27.9509 5.01281 -5.53935 0.0435974 1 
20693 1 25.3552 3.69815 -5.4534 0.0348232 1 
20694 1 27.7958 2.18313 -5.93558 0.0438416 1 
20695 1 27.213 3.24828 -3.45466 0.251986 1 
20696 1 29.6472 1.78958 -3.79334 0.0480297 1 
20697 1 27.0708 0.419291 -3.83139 0.249921 1 
55386 2 57.9609 40.0303 1.8124 7.28165 2 
20725 1 68.7494 28.9785 -14.6442 0.000119469 1 
20729 1 70.4514 25.7438 -12.911 0.000531144 1 
20730 1 72.8562 24.2346 -13.3282 0.00057984 1 
20731 1 70.3089 22.9084 -13.325 0.000414256 1 
20732 1 72.7114 21.3996 -13.7411 0.00041543 1 
20733 1 72.1565 22.5041 -11.178 0.00161465 1 
20734 1 16.4292 20.9951 -11.5798 0.00108248 1 
20735 1 72.009 19.6678 -11.5828 0.000989266 1 
20736 1 16.2796 18.1599 -11.988 0.000691495 1 
20737 1 15.7317 19.2616 -9.42731 0.00325904 1 
20738 1 18.1211 17.7536 -9.81401 0.00152798 1 
20739 1 15.5773 16.4296 -9.82317 0.00161282 1 
20740 1 17.9678 14.9228 -10.2221 0.00078664 1 
20741 1 17.4218 16.0219 -7.64191 0.0057259 1 
20742 1 19.797 14.5156 -8.03472 0.00338983 1 
20743 1 17.2631 13.2009 -8.04785 0.00247164 1 
20744 1 19.647 11.6883 -8.45363 0.00172132 1 
20745 1 19.0958 12.7888 -5.84903 0.00880195 1 
20746 1 21.4689 11.2694 -6.2704 0.00827847 1 
20747 1 18.953 9.96295 -6.26933 0.00872099 1 
20748 1 21.3189 8.44896 -6.68343 0.0108569 1 
20749 1 20.7881 9.54359 -4.03219 0.051567 1 
20750 1 23.1196 8.03886 -4.51497 0.0978675 1 
20751 1 20.6405 6.72784 -4.44964 0.0437245 1 
20752 1 22.9639 5.21688 -4.9155 0.0974941 1 
20753 1 22.4724 6.32619 -2.15392 0.427512 1 
20754 1 24.7429 4.80288 -2.85667 0.880779 1 
20755 1 22.325 3.47996 -2.53797 0.45494 1 
20756 1 24.6049 2.01152 -3.20737 0.944365 1 
20757 1 24.2332 2.98097 -0.094119 8.85497 5 
20758 1 26.4065 1.42044 -1.38905 9.14933 5 
20759 1 24.1215 0.0204173 -0.498439 7.8316 5 
20774 1 63.9513 31.987 -13.7949 0.000121061 1 
20775 1 66.3487 30.4834 -14.2173 0.000102379 1 
20776 1 63.8118 29.1545 -14.2103 8.58754e-05 1 
20777 1 66.2094 27.651 -14.6347 8.30997e-05 1 
20778 1 65.6474 28.7534 -12.0485 0.000359358 1 
20779 1 68.0464 27.2508 -12.4814 0.000373197 1 
20780 1 65.5065 25.9206 -12.4668 0.000261322 1 
20781 1 67.9056 24.4163 -12.8985 0.00031736 1 
20782 1 67.3419 25.5215 -10.3188 0.00114378 1 
20783 1 69.7476 24.0142 -10.7588 0.00138798 1 
20784 1 67.2001 22.6843 -10.7345 0.000905764 1 
20785 1 69.604 21.1761 -11.166 0.000990222 1 
20786 1 69.042 22.2782 -8.60846 0.00380056 1 
20787 1 71.4546 20.7688 -9.03175 0.00411444 1 
20788 1 68.8971 19.4415 -8.99754 0.00189411 1 
20789 1 71.3044 17.9365 -9.42043 0.0018328 1 
20790 1 70.7486 19.033 -6.8729 0.00739251 1 
20791 1 15.032 17.5316 -7.27062 0.00845955 1 
20792 1 70.5939 16.2155 -7.24754 0.00399715 1 
20793 1 14.8695 14.709 -7.65637 0.00469823 1 
20794 1 14.3159 15.8288 -5.1012 0.0286965 1 
20795 1 16.7072 14.3176 -5.46048 0.0191709 1 
20796 1 14.1465 13.0032 -5.50952 0.0113365 1 
20797 1 16.5579 11.4843 -5.9008 0.00773632 1 
20798 1 15.9766 12.5989 -3.35928 0.0382588 1 
20799 1 18.3924 11.0685 -3.6848 0.019831 1 
20800 1 15.8428 9.76729 -3.7841 0.0260411 1 
20801 1 18.2649 8.24728 -4.10349 0.0139369 1 
20802 1 17.669 9.36974 -1.54963 0.0748279 1 
20803 1 20.1041 7.85629 -1.82778 0.108639 1 
20804 1 17.5702 6.53532 -1.97329 0.0353754 1 
20805 1 19.9695 5.02849 -2.2516 0.0325347 1 
20806 1 19.3919 6.21837 0.365013 6.58804 2 
20807 1 21.8495 4.71173 0.121152 5.96669 2 
20808 1 19.3345 3.36 -0.0620091 6.54319 2 
20809 1 21.7154 1.75598 -0.320699 5.58248 5 
20814 1 59.1522 34.9967 -12.9672 0.000505312 1 
20815 1 61.554 33.4914 -13.38 0.000251758 1 
20816 1 59.0143 32.1629 -13.3764 0.000446842 1 
20817 1 61.4147 30.6579 -13.792 0.000207601 1 
20818 1 60.8595 31.7565 -11.2168 0.000985056 1 
20819 1 63.254 30.254 -11.6256 0.000434295 1 
20820 1 60.7174 28.9227 -11.6249 0.000772911 1 
20821 1 63.1119 27.4216 -12.0405 0.000285083 1 
20822 1 62.5613 28.5165 -9.45381 0.00165847 1 
20823 1 64.9475 27.0208 -9.87671 0.00121267 1 
20824 1 62.4133 25.6862 -9.86843 0.000859113 1 
20825 1 64.8031 24.1878 -10.2966 0.000846502 1 
20826 1 64.249 25.2847 -7.70183 0.0038138 1 
20827 1 66.6362 23.787 -8.15686 0.00386937 1 
20828 1 64.1003 22.4528 -8.11922 0.00259413 1 
20829 1 66.4951 20.9488 -8.56091 0.00233554 1 
20830 1 65.9355 22.0423 -5.98339 0.0154414 1 
20831 1 68.3379 20.5349 -6.44045 0.00757998 1 
20832 1 65.7925 19.2197 -6.35667 0.00793503 1 
20833 1 68.1876 17.7113 -6.8034 0.00697533 1 
20834 1 67.6285 18.8073 -4.22259 0.0504256 1 
20835 1 70.0356 17.3102 -4.68124 0.0322735 1 
20836 1 67.4796 16.0049 -4.55137 0.0491401 1 
20837 1 11.7407 14.5158 -5.07034 0.0177344 1 
20838 1 69.3013 15.5958 -2.42761 0.378716 1 
20839 1 13.5661 14.1456 -2.96367 0.134737 1 
20840 1 11.0065 12.8251 -2.89245 0.269261 1 
20841 1 13.4055 11.3157 -3.38136 0.0749063 1 
20842 1 12.7692 12.5148 -0.774662 6.29025 5 
20843 1 15.221 10.8745 -1.27713 0.199669 1 
20844 1 12.7228 9.52916 -1.40721 0.557533 1 
20845 1 15.148 8.02806 -1.7109 0.0812735 1 
20846 1 16.8928 4.8071 0.15677 6.66618 2 
20847 1 58.4558 33.2609 -10.8096 0.00204362 1 
20848 1 58.3164 30.4273 -11.2127 0.00175299 1 
20849 1 60.1726 30.0156 -9.05707 0.00431932 1 
20850 1 60.0219 27.1836 -9.45767 0.00260174 1 
20851 1 59.4873 28.267 -6.90555 0.0141617 1 
20852 1 61.8731 26.7744 -7.27986 0.00470631 1 
20853 1 59.3239 25.4441 -7.28542 0.0111406 1 
20854 1 61.7135 23.9518 -7.69115 0.00184725 1 
20855 1 61.1832 25.0403 -5.09499 0.0145043 1 
20856 1 63.5487 23.5448 -5.52393 0.0135574 1 
20857 1 61.0141 22.2258 -5.51005 0.00559003 1 
20858 1 63.4086 20.7219 -5.91545 0.00914571 1 
20859 1 62.8605 21.8087 -3.30912 0.0608223 1 
20860 1 65.2706 20.312 -3.72923 0.0609883 1 
20861 1 62.7187 19.0063 -3.7217 0.0209365 1 
20862 1 65.1068 17.5003 -4.13052 0.0177961 1 
20863 1 64.5591 18.5701 -1.50181 0.103013 1 
20864 1 66.9454 17.1117 -1.88192 0.215414 1 
20865 1 64.4244 15.795 -1.91152 0.0191771 1 
20866 1 66.8241 14.2932 -2.25124 0.27025 1 
20867 1 66.2628 15.4567 0.378826 0.676288 1 
20868 1 68.7012 13.9833 0.139136 3.54367 5 
20869 1 66.1486 12.6506 9.52136e-05 0.684197 5 
20870 1 10.2477 11.162 -0.776496 8.58146 5 
20871 1 58.7853 26.5174 -4.75371 0.0850912 1 
20872 1 58.6128 23.7175 -5.11517 0.0442775 1 
20873 1 58.013 24.814 -2.58955 2.22709 5 
20874 1 60.4722 23.3269 -2.92403 0.149558 1 
20875 1 60.2903 20.525 -3.35428 0.0239095 1 
20876 1 59.647 21.6837 -0.809128 0.508224 1 
20877 1 62.0987 20.1083 -1.13933 0.168627 1 
20878 1 59.5504 18.8077 -1.25809 0.0323753 1 
20879 1 61.9901 17.299 -1.57042 0.0250825 1 
20880 1 63.7206 14.1163 0.289459 0.147465 1 
22358 1 49.5387 3.81697 -14.4466 0.000101253 1 
22359 1 51.9336 2.30948 -14.8687 0.000152096 1 
22360 1 49.3945 0.98566 -14.85 8.97962e-05 1 
22361 1 51.2212 0.580527 -12.6867 0.000487584 1 
22468 1 44.7495 6.83506 -13.6162 0.000113208 1 
22469 1 47.145 5.32558 -14.0304 6.78136e-05 1 
22470 1 44.6039 4.00197 -14.0194 9.95592e-05 1 
22471 1 46.9999 2.49316 -14.4334 6.70556e-05 1 
22472 1 46.4383 3.59695 -11.8562 0.000344495 1 
22473 1 48.8298 2.08764 -12.2662 0.000313402 1 
22474 1 46.2917 0.764791 -12.2556 0.000289061 1 
22475 1 48.1235 0.359187 -10.0807 0.0012056 1 
22568 1 38.2662 13.088 -14.5263 4.76625e-05 1 
22569 1 40.663 11.5795 -14.9482 2.98248e-05 1 
22570 1 38.1218 10.2564 -14.9335 5.30035e-05 1 
22572 1 39.9532 9.85261 -12.7745 0.000144892 1 
22573 1 42.3514 8.34449 -13.1984 0.000128861 1 
22574 1 39.8082 7.02084 -13.1803 0.000188885 1 
22575 1 42.2059 5.51159 -13.6027 0.000126465 1 
22576 1 41.6404 6.61911 -11.0293 0.000737232 1 
22577 1 44.042 5.10798 -11.4477 0.000590298 1 
22578 1 41.494 3.78556 -11.4295 0.000613674 1 
22579 1 43.8948 2.27432 -11.8462 0.000482858 1 
22580 1 43.3325 3.38277 -9.28398 0.00273489 1 
22581 1 45.7348 1.86918 -9.68291 0.0020202 1 
22582 1 43.1811 0.549815 -9.67417 0.00174126 1 
22583 1 45.0274 0.146157 -7.51933 0.00684201 1 
22664 1 33.4739 16.1049 -13.6838 7.93399e-05 1 
22665 1 35.8703 14.5967 -14.1047 7.0564e-05 1 
22666 1 33.3311 13.2743 -14.0965 6.75122e-05 1 
22667 1 35.7267 11.7654 -14.5142 5.73089e-05 1 
22668 1 35.1656 12.8706 -11.9307 0.000223126 1 
22669 1 37.5583 11.3615 -12.3506 0.000208375 1 
22670 1 35.0219 10.0378 -12.3407 0.000198997 1 
22671 1 37.4139 8.52884 -12.7569 0.000258179 1 
22672 1 36.8501 9.63468 -10.1708 0.000923847 1 
22673 1 39.2407 8.12548 -10.5965 0.000977368 1 
22674 1 36.7067 6.8012 -10.573 0.00131349 1 
22675 1 39.0961 5.29585 -11.0009 0.00119989 1 
22676 1 38.5258 6.39762 -8.40169 0.00689805 1 
22677 1 40.9248 4.89831 -8.85901 0.005142 1 
22678 1 38.3797 3.57806 -8.81093 0.00813574 1 
22679 1 40.7751 2.06586 -9.25107 0.00196216 1 
22680 1 40.1982 3.19818 -6.67781 0.0467962 1 
22681 1 42.6114 1.66673 -7.1232 0.0076256 1 
22682 1 40.0453 0.354867 -7.07015 0.00548368 1 
22748 1 26.9825 22.3546 -14.5757 0.000224806 1 
22750 1 26.8406 19.526 -14.9925 0.000109277 1 
22752 1 28.6754 19.1209 -12.8352 0.000184343 1 